# vtk DataFile Version 3.0
SHAPE_sfm_50k_v20200323
ASCII
DATASET POLYDATA
POINTS 1818 float
0.38556 -0.01038 0.16834
0.38846 -0.00834 0.16647
0.38592 -0.0079 0.16813
0.38369 -0.00558 0.1697
0.38624 -0.00546 0.16802
0.38864 -0.00588 0.16617
0.3911 -0.00651 0.16445
0.38419 -0.00323 0.16919
0.3867 -0.00311 0.16742
0.38919 -0.00351 0.16566
0.39178 -0.00413 0.16411
0.39356 -0.00702 0.16271
0.3942 -0.00464 0.16233
0.3849 -0.00091 0.16872
0.38747 -0.00078 0.16703
0.39001 -0.00118 0.16537
0.39223 -0.0018 0.16335
0.39469 -0.00232 0.16158
0.3965 -0.00485 0.16033
0.39716 -0.00251 0.15978
0.39893 -0.00484 0.15841
0.39968 -0.00245 0.15802
0.38281 0.00156 0.17062
0.38527 0.00152 0.1688
0.38773 0.00168 0.16701
0.39017 0.00129 0.16526
0.39246 0.00069 0.16336
0.39464 0.00014 0.16126
0.39709 -8e-05 0.1594
0.39957 -2e-05 0.15761
0.40205 -0.00265 0.15608
0.40195 -0.00019 0.15572
0.40429 -0.00067 0.15378
0.38501 0.00389 0.16938
0.38763 0.00402 0.16786
0.3899 0.00366 0.16592
0.39213 0.00307 0.16397
0.39406 0.00254 0.16164
0.39619 0.00228 0.15941
0.39859 0.00231 0.1575
0.4011 0.00218 0.15583
0.40349 0.00172 0.15395
0.40584 0.00153 0.15201
0.40665 -0.00087 0.15184
0.40811 0.00166 0.14998
0.40889 -0.00075 0.14976
0.41042 0.00128 0.14805
0.38705 0.00635 0.16843
0.38463 0.00617 0.17017
0.38946 0.00598 0.1667
0.3914 0.0054 0.16445
0.39337 0.00488 0.16219
0.39552 0.00465 0.16001
0.39781 0.00468 0.15802
0.40015 0.0045 0.15612
0.40263 0.00406 0.15439
0.405 0.00388 0.15249
0.4073 0.00402 0.15053
0.40955 0.00365 0.14859
0.41185 0.00306 0.14668
0.41288 0.00072 0.14632
0.41446 0.0029 0.14505
0.38673 0.00869 0.16911
0.38427 0.00851 0.17078
0.38897 0.00836 0.16719
0.39087 0.00779 0.16494
0.39275 0.00727 0.1626
0.39519 0.00703 0.16075
0.39732 0.00708 0.15863
0.39948 0.00691 0.15655
0.40186 0.00644 0.15469
0.40439 0.00628 0.15303
0.40688 0.00641 0.15134
0.40899 0.00605 0.14926
0.41109 0.00547 0.14718
0.41344 0.00526 0.14521
0.41713 0.00354 0.14374
0.41603 0.00587 0.14372
0.41992 0.00417 0.14271
0.41884 0.00652 0.14277
0.42283 0.00462 0.14195
0.42173 0.007 0.14202
0.3862 0.01108 0.16942
0.38362 0.01088 0.17088
0.38862 0.01076 0.16774
0.3906 0.01019 0.16556
0.39237 0.00968 0.16315
0.39469 0.00944 0.16119
0.397 0.00948 0.15928
0.39898 0.00934 0.15703
0.40117 0.00887 0.15496
0.40381 0.0087 0.15346
0.40655 0.00886 0.15212
0.40852 0.0085 0.14985
0.41035 0.0079 0.14753
0.41246 0.00765 0.14534
0.41497 0.00824 0.14371
0.41772 0.00886 0.14259
0.42056 0.00933 0.14172
0.42459 0.00743 0.14093
0.4234 0.00977 0.14076
0.42677 0.008 0.13878
0.42586 0.01046 0.13902
0.42708 0.01074 0.13622
0.42805 0.0083 0.13602
0.4278 0.01048 0.13332
0.4289 0.00806 0.13315
0.42862 0.00989 0.1305
0.38554 0.01345 0.16949
0.38307 0.01325 0.17113
0.38802 0.01316 0.16789
0.3902 0.01261 0.16593
0.39215 0.0121 0.16369
0.39428 0.01188 0.16157
0.3965 0.01193 0.15956
0.39865 0.01179 0.15748
0.40077 0.01133 0.15538
0.40313 0.01113 0.1535
0.40576 0.01132 0.15203
0.40799 0.01099 0.15004
0.40966 0.01038 0.1476
0.4117 0.01013 0.14536
0.41413 0.0107 0.1436
0.41686 0.01132 0.14242
0.41973 0.01181 0.14161
0.42267 0.01229 0.14093
0.42522 0.01302 0.13922
0.42638 0.01328 0.13633
0.42727 0.0131 0.13347
0.42805 0.01257 0.13063
0.42903 0.01197 0.12782
0.42964 0.00928 0.1277
0.43044 0.01142 0.12518
0.43097 0.00877 0.125
0.43178 0.01105 0.1225
0.43648 0.01303 0.11186
0.43823 0.01174 0.10918
0.43762 0.01438 0.1094
0.43983 0.01256 0.10679
0.43906 0.01519 0.10692
0.4404 0.01491 0.10434
0.38485 0.01582 0.16939
0.38257 0.01566 0.1713
0.38732 0.01553 0.16774
0.38964 0.01503 0.16595
0.39176 0.01453 0.16387
0.39417 0.01433 0.16207
0.3963 0.0144 0.15997
0.39837 0.01427 0.15782
0.40044 0.01381 0.15569
0.40255 0.01359 0.15356
0.40498 0.01373 0.15179
0.40741 0.01348 0.15005
0.4093 0.01292 0.14779
0.41128 0.0127 0.14553
0.41363 0.01325 0.14371
0.41622 0.01383 0.14227
0.41907 0.01433 0.14143
0.42204 0.01487 0.14083
0.42457 0.01561 0.13903
0.42575 0.01584 0.13614
0.42748 0.0158 0.13369
0.42887 0.01518 0.13108
0.42959 0.01465 0.12817
0.4306 0.01413 0.12539
0.43131 0.01372 0.12251
0.43198 0.01336 0.11957
0.43301 0.01086 0.11977
0.43413 0.01099 0.11698
0.43313 0.01348 0.11677
0.43548 0.01187 0.11443
0.43412 0.01418 0.11399
0.43543 0.01549 0.1116
0.43696 0.01708 0.10947
0.43813 0.0178 0.10678
0.43921 0.01736 0.10408
0.44066 0.01651 0.10161
0.44201 0.01414 0.10195
0.44228 0.01548 0.09932
0.38454 0.01828 0.16941
0.38233 0.01809 0.17142
0.3868 0.01794 0.16748
0.38901 0.0174 0.16554
0.39141 0.01698 0.16378
0.39387 0.0168 0.16208
0.39621 0.01689 0.16022
0.39827 0.01677 0.15806
0.40022 0.01632 0.15583
0.40203 0.01605 0.15345
0.40428 0.01614 0.15145
0.40676 0.01594 0.14977
0.40908 0.01548 0.14791
0.41109 0.01527 0.14571
0.41321 0.0158 0.14366
0.41572 0.01637 0.14207
0.41852 0.01686 0.14109
0.42145 0.01742 0.14038
0.42386 0.01813 0.13845
0.425 0.01831 0.13555
0.42674 0.01834 0.13313
0.42941 0.01791 0.13152
0.43082 0.0171 0.12878
0.43168 0.01664 0.12583
0.43158 0.01641 0.12277
0.43111 0.01593 0.11976
0.43195 0.01592 0.1168
0.43273 0.01649 0.11392
0.4339 0.0177 0.1114
0.43508 0.01906 0.10899
0.43608 0.0196 0.10624
0.43747 0.01942 0.10368
0.43894 0.01863 0.10115
0.44097 0.01793 0.09911
0.44291 0.01678 0.09708
0.38233 0.02053 0.17124
0.38454 0.02073 0.16923
0.38669 0.0204 0.16717
0.38879 0.01984 0.1651
0.3912 0.0194 0.16334
0.39374 0.01925 0.16177
0.39636 0.01942 0.16025
0.39833 0.01928 0.15796
0.40004 0.01881 0.15554
0.40171 0.01852 0.15308
0.40377 0.01855 0.15089
0.40611 0.01829 0.14903
0.40857 0.01794 0.14734
0.41087 0.01782 0.14547
0.41292 0.01833 0.14333
0.41538 0.01891 0.1417
0.41814 0.01941 0.14065
0.42103 0.01996 0.13973
0.42317 0.02053 0.13752
0.42431 0.0207 0.13466
0.42618 0.0208 0.13232
0.4289 0.02059 0.13088
0.43146 0.02003 0.12883
0.43226 0.0195 0.12564
0.43186 0.0192 0.12252
0.43076 0.01861 0.11966
0.43087 0.0184 0.11664
0.43138 0.01884 0.11367
0.4323 0.01987 0.11098
0.43304 0.0208 0.10819
0.43399 0.02131 0.10539
0.43559 0.02136 0.10288
0.4377 0.02108 0.1007
0.44009 0.02054 0.099
0.44202 0.01943 0.09705
0.44383 0.01831 0.09492
0.44491 0.01573 0.09506
0.44589 0.01776 0.09279
0.38036 0.0229 0.17291
0.38252 0.02294 0.17086
0.38468 0.02316 0.16881
0.38683 0.02284 0.16676
0.38891 0.02231 0.16469
0.39111 0.02182 0.16269
0.39364 0.02164 0.16109
0.3962 0.02184 0.1595
0.39817 0.02169 0.15721
0.39973 0.02116 0.15471
0.40141 0.02087 0.15225
0.40347 0.02093 0.15007
0.40567 0.0206 0.14806
0.40804 0.02021 0.14628
0.41039 0.02014 0.14446
0.41261 0.02076 0.14254
0.41511 0.02139 0.14102
0.41788 0.02193 0.14
0.42069 0.02245 0.13881
0.42244 0.02278 0.13628
0.42377 0.02306 0.13359
0.42619 0.02347 0.13184
0.42871 0.02324 0.13006
0.43066 0.02264 0.12755
0.43094 0.0219 0.12446
0.43043 0.02143 0.12152
0.42968 0.02082 0.11867
0.43002 0.02077 0.11568
0.43045 0.02123 0.11272
0.43126 0.02224 0.10999
0.43189 0.02319 0.10716
0.43312 0.0239 0.10446
0.43496 0.02404 0.1021
0.43717 0.02374 0.10006
0.43962 0.02318 0.09843
0.44199 0.02222 0.09688
0.44355 0.02107 0.09458
0.44548 0.02048 0.09234
0.44791 0.01769 0.09058
0.44761 0.02042 0.09021
0.44981 0.01823 0.08834
0.44969 0.02102 0.08819
0.45163 0.01924 0.08625
0.45167 0.02207 0.08626
0.45322 0.02003 0.0839
0.45287 0.02278 0.08364
0.4544 0.02094 0.08133
0.45393 0.02367 0.08099
0.3804 0.02531 0.17256
0.3826 0.02537 0.17056
0.38477 0.02561 0.16855
0.38689 0.02531 0.16649
0.38904 0.02479 0.16451
0.39121 0.02432 0.16251
0.39346 0.02408 0.16057
0.39558 0.02406 0.15848
0.39745 0.02388 0.15618
0.39914 0.02342 0.15376
0.40097 0.0232 0.1514
0.40296 0.02323 0.14918
0.40512 0.02291 0.14715
0.40739 0.02246 0.14526
0.40973 0.0224 0.14342
0.41196 0.02302 0.14152
0.41451 0.02373 0.14012
0.4173 0.02436 0.13916
0.41997 0.02478 0.13768
0.42153 0.02495 0.13505
0.42326 0.02551 0.13272
0.42575 0.02614 0.13104
0.42804 0.02578 0.12881
0.4292 0.02463 0.12607
0.42924 0.02365 0.12318
0.42851 0.023 0.12036
0.42813 0.02261 0.11736
0.42892 0.02291 0.11442
0.42982 0.02366 0.11165
0.43102 0.02486 0.10915
0.43167 0.02583 0.10635
0.433 0.02658 0.10375
0.43465 0.02667 0.10131
0.43662 0.02626 0.09903
0.43918 0.02574 0.09752
0.44154 0.02478 0.09595
0.44361 0.02378 0.09405
0.44527 0.02314 0.09164
0.44726 0.02302 0.08933
0.44965 0.02374 0.08766
0.4516 0.02482 0.08567
0.45251 0.02542 0.08284
0.45359 0.02637 0.0802
0.3824 0.02781 0.17053
0.38019 0.02774 0.17252
0.3846 0.02807 0.16857
0.38696 0.02778 0.1668
0.38901 0.02727 0.16472
0.39092 0.02679 0.16249
0.39295 0.0265 0.16032
0.39487 0.02643 0.15806
0.39664 0.02621 0.15569
0.39828 0.02573 0.15324
0.40019 0.02555 0.15095
0.402 0.0255 0.14858
0.40407 0.02513 0.14647
0.40632 0.02468 0.14457
0.40852 0.0245 0.14257
0.41073 0.0251 0.14062
0.41329 0.02584 0.13925
0.41606 0.02652 0.13828
0.41867 0.02693 0.13672
0.42031 0.02713 0.13418
0.4219 0.02756 0.13171
0.42408 0.02797 0.12965
0.42609 0.02738 0.12737
0.42726 0.02617 0.12481
0.42715 0.02499 0.12206
0.42679 0.02467 0.11913
0.42685 0.02466 0.11608
0.42815 0.0253 0.11338
0.42921 0.02614 0.11073
0.43008 0.02718 0.10807
0.43096 0.02826 0.10538
0.43243 0.02909 0.10289
0.43439 0.02934 0.10074
0.43624 0.02893 0.09842
0.4385 0.02825 0.09657
0.44085 0.0273 0.09499
0.44303 0.02638 0.09324
0.44482 0.02579 0.09094
0.44668 0.02565 0.08854
0.44885 0.02622 0.08658
0.45057 0.02721 0.08442
0.45213 0.02814 0.08213
0.38215 0.03025 0.17066
0.37988 0.03016 0.17255
0.38429 0.03051 0.16863
0.3866 0.03024 0.16681
0.38873 0.02975 0.16482
0.3905 0.02924 0.16247
0.39243 0.02895 0.16023
0.39416 0.02882 0.15782
0.39573 0.02854 0.15532
0.39738 0.02807 0.15288
0.39918 0.02784 0.15051
0.40094 0.02777 0.14811
0.40314 0.02749 0.14613
0.40527 0.02699 0.14413
0.40725 0.02667 0.14193
0.40933 0.02713 0.13982
0.4118 0.02769 0.13821
0.4145 0.02827 0.13706
0.41708 0.02877 0.13558
0.41892 0.02925 0.13324
0.42032 0.0294 0.13059
0.42209 0.02916 0.12822
0.42395 0.0284 0.12602
0.42495 0.02707 0.12358
0.42527 0.02641 0.12074
0.42529 0.02647 0.11775
0.42589 0.02686 0.11481
0.42707 0.02745 0.11211
0.42812 0.02829 0.10946
0.42913 0.02944 0.10688
0.43012 0.03061 0.10426
0.43162 0.03149 0.1018
[...]
CELL_DATA 3451
SCALARS brightness_temperature float
LOOKUP_TABLE default
POINT_DATA 1818
CELL_DATA 3451
SCALARS emission_angle float
LOOKUP_TABLE default
POINT_DATA 1818
CELL_DATA 3451
SCALARS incidence_angle float
LOOKUP_TABLE default
POINT_DATA 1818
CELL_DATA 3451
SCALARS phase_angle float
LOOKUP_TABLE default
POINT_DATA 1818
CELL_DATA 3451
SCALARS local_solar_time float
LOOKUP_TABLE default
POINT_DATA 1818
CELL_DATA 3451
SCALARS local_solar_time_normal_vector float
LOOKUP_TABLE default
CELL_DATA 3451
SCALARS pixel_x float
LOOKUP_TABLE default
POINT_DATA 1818
CELL_DATA 3451
SCALARS pixel_y float
LOOKUP_TABLE default
POINT_DATA 1818
CELL_DATA 3451
SCALARS longitude float
LOOKUP_TABLE default
POINT_DATA 1818
CELL_DATA 3451
SCALARS latitude float
LOOKUP_TABLE default
