# vtk DataFile Version 3.0
SHAPE_sfm_50k_v20200323
ASCII
DATASET POLYDATA
POINTS 831 float
0.35902 -0.12587 -0.18832
0.35776 -0.12309 -0.18992
0.3602 -0.12363 -0.18843
0.35655 -0.12532 -0.18978
0.3544 -0.12429 -0.19147
0.35551 -0.122 -0.19144
0.36722 -0.12333 -0.18265
0.3644 -0.12453 -0.18449
0.36603 -0.12278 -0.18532
0.36256 -0.124 -0.18673
0.36387 -0.12186 -0.18712
0.36139 -0.12139 -0.18858
0.35906 -0.12093 -0.19027
0.35679 -0.11983 -0.19176
0.38081 -0.12055 -0.16459
0.37859 -0.12219 -0.16635
0.3793 -0.11968 -0.16694
0.37672 -0.12207 -0.16861
0.37772 -0.11973 -0.16941
0.37573 -0.12016 -0.17151
0.37524 -0.12275 -0.17107
0.37376 -0.12084 -0.17357
0.37299 -0.12327 -0.17286
0.37246 -0.12173 -0.17603
0.36992 -0.12263 -0.1812
0.36906 -0.12214 -0.18405
0.36752 -0.121 -0.18643
0.3651 -0.11969 -0.1876
0.36259 -0.1192 -0.18899
0.36017 -0.11868 -0.19052
0.35788 -0.11756 -0.19199
0.35496 -0.11862 -0.19368
0.35626 -0.11655 -0.19423
0.38312 -0.11937 -0.16292
0.38179 -0.11811 -0.16521
0.38031 -0.1173 -0.1676
0.37845 -0.11721 -0.16985
0.37679 -0.11782 -0.17219
0.37471 -0.11847 -0.1742
0.37372 -0.11955 -0.17674
0.37292 -0.12073 -0.17928
0.37104 -0.1224 -0.17848
0.3722 -0.1215 -0.18214
0.37125 -0.12093 -0.18516
0.36937 -0.11926 -0.18715
0.36683 -0.11787 -0.18801
0.36422 -0.11725 -0.18912
0.36177 -0.11672 -0.19062
0.35955 -0.11567 -0.19221
0.35784 -0.11462 -0.19435
0.39191 -0.12126 -0.15572
0.39059 -0.11839 -0.15701
0.39306 -0.11883 -0.15551
0.38933 -0.12079 -0.15705
0.38808 -0.11833 -0.1586
0.38679 -0.12073 -0.15861
0.3859 -0.11805 -0.16062
0.38495 -0.12056 -0.16094
0.38433 -0.11698 -0.16287
0.38303 -0.11575 -0.16521
0.38165 -0.115 -0.16766
0.37968 -0.11488 -0.16974
0.37775 -0.11536 -0.17185
0.37613 -0.11626 -0.17415
0.37447 -0.11706 -0.17652
0.37401 -0.11833 -0.17918
0.37403 -0.11931 -0.18208
0.37365 -0.11899 -0.18554
0.37129 -0.11726 -0.1873
0.36865 -0.11601 -0.18826
0.36584 -0.11531 -0.18888
0.36322 -0.11468 -0.19009
0.36133 -0.11389 -0.19222
0.35961 -0.11284 -0.19436
0.3578 -0.1117 -0.19641
0.40008 -0.12065 -0.15056
0.3999 -0.11807 -0.1526
0.40199 -0.11865 -0.1506
0.39798 -0.12007 -0.15252
0.39732 -0.11745 -0.15392
0.39555 -0.11949 -0.15406
0.39481 -0.11676 -0.15533
0.39246 -0.11644 -0.15698
0.38979 -0.11624 -0.15832
0.38737 -0.11583 -0.16013
0.38562 -0.11469 -0.16225
0.38435 -0.1135 -0.16463
0.38303 -0.1128 -0.16705
0.3813 -0.11282 -0.16926
0.37914 -0.11323 -0.17113
0.3773 -0.11404 -0.17334
0.37553 -0.11481 -0.17564
0.37427 -0.11584 -0.17822
0.3744 -0.1167 -0.18119
0.37448 -0.11623 -0.18442
0.37269 -0.11479 -0.18679
0.37001 -0.1137 -0.18807
0.36712 -0.11312 -0.1887
0.36452 -0.11253 -0.19
0.36281 -0.11185 -0.19232
0.36111 -0.11084 -0.19449
0.35924 -0.10968 -0.19644
0.40364 -0.1193 -0.14828
0.40341 -0.11658 -0.14946
0.40143 -0.11605 -0.15149
0.39928 -0.11566 -0.15342
0.39701 -0.11519 -0.15524
0.39461 -0.11484 -0.15675
0.39195 -0.11464 -0.15813
0.38929 -0.114 -0.15962
0.38735 -0.11275 -0.16153
0.38584 -0.11147 -0.16371
0.38445 -0.11081 -0.166
0.38281 -0.11092 -0.16822
0.38091 -0.11144 -0.1703
0.37865 -0.11208 -0.1722
0.37697 -0.1129 -0.17453
0.37522 -0.11378 -0.17685
0.37426 -0.11446 -0.17969
0.37358 -0.11403 -0.1825
0.37266 -0.11265 -0.18493
0.37062 -0.11149 -0.18669
0.36809 -0.11091 -0.188
0.36574 -0.11039 -0.18974
0.36409 -0.1097 -0.19209
0.36261 -0.10879 -0.19451
0.36063 -0.10765 -0.19641
0.40309 -0.11441 -0.15008
0.40111 -0.11407 -0.15221
0.39941 -0.11403 -0.15469
0.39713 -0.11384 -0.15653
0.39429 -0.11342 -0.15761
0.39158 -0.11272 -0.15898
0.38944 -0.11133 -0.16059
0.38783 -0.11 -0.16262
0.38624 -0.10926 -0.16475
0.38447 -0.10931 -0.16692
0.38238 -0.10972 -0.16891
0.38039 -0.11044 -0.17106
0.37833 -0.1111 -0.17316
0.37661 -0.112 -0.17544
0.37519 -0.11257 -0.17804
0.37445 -0.11217 -0.18085
0.37369 -0.1109 -0.18336
0.37174 -0.1098 -0.18514
0.36924 -0.10925 -0.18648
0.36698 -0.1087 -0.18841
0.3651 -0.10793 -0.19062
0.36358 -0.10697 -0.19301
0.36213 -0.10599 -0.19538
0.36045 -0.10569 -0.19755
0.40305 -0.11246 -0.15124
0.4049 -0.11273 -0.14898
0.40135 -0.11239 -0.15368
0.39947 -0.11242 -0.15602
0.39668 -0.11217 -0.15729
0.39383 -0.11144 -0.15826
0.39165 -0.11004 -0.15976
0.38999 -0.10866 -0.16179
0.38824 -0.10774 -0.16383
0.38636 -0.10769 -0.16597
0.38412 -0.10801 -0.16783
0.38184 -0.10868 -0.16971
0.38001 -0.10948 -0.17193
0.37801 -0.11029 -0.17401
0.37641 -0.11081 -0.1765
0.37551 -0.11042 -0.17927
0.37525 -0.10932 -0.18207
0.37336 -0.10818 -0.18401
0.37078 -0.10763 -0.18523
0.36815 -0.10724 -0.18665
0.36614 -0.10648 -0.18884
0.36469 -0.10552 -0.19131
0.36326 -0.10454 -0.19371
0.36155 -0.10416 -0.19594
0.3597 -0.10449 -0.19823
0.40474 -0.11063 -0.15022
0.40314 -0.11057 -0.15274
0.40119 -0.11054 -0.15497
0.39865 -0.11044 -0.15657
0.3959 -0.10982 -0.15773
0.3938 -0.10848 -0.15936
0.39204 -0.10702 -0.16124
0.39025 -0.10607 -0.1633
0.38829 -0.10596 -0.16541
0.3861 -0.10631 -0.1673
0.38364 -0.10686 -0.16892
0.38138 -0.10755 -0.17075
0.3796 -0.10848 -0.17297
0.3777 -0.10892 -0.17523
0.37669 -0.10851 -0.17798
0.37584 -0.10733 -0.18052
0.37448 -0.10619 -0.18287
0.37204 -0.10561 -0.18436
0.36938 -0.10523 -0.18565
0.36715 -0.10452 -0.18759
0.3656 -0.1036 -0.19001
0.36417 -0.10263 -0.19241
0.36243 -0.10224 -0.19466
0.36036 -0.10267 -0.19666
0.35831 -0.10311 -0.19893
0.40404 -0.10823 -0.1517
0.40239 -0.10821 -0.15418
0.39984 -0.10815 -0.15574
0.3974 -0.10764 -0.15735
0.39553 -0.10644 -0.15931
0.39377 -0.105 -0.16119
0.39191 -0.104 -0.16324
0.38993 -0.10389 -0.1654
0.38778 -0.10427 -0.16733
0.38534 -0.10483 -0.16889
0.38287 -0.10541 -0.17038
0.3807 -0.10624 -0.17223
0.37908 -0.1068 -0.17467
0.3776 -0.10627 -0.17715
0.37658 -0.10508 -0.17958
0.37469 -0.104 -0.1815
0.37252 -0.10334 -0.18329
0.37016 -0.10292 -0.18497
0.3679 -0.10223 -0.18682
0.36622 -0.10134 -0.18912
0.36477 -0.10041 -0.19151
0.36315 -0.10001 -0.19388
0.36116 -0.10041 -0.19594
0.3589 -0.10089 -0.19787
0.40243 -0.10555 -0.1535
0.40429 -0.10557 -0.15122
0.40041 -0.10552 -0.15562
0.39844 -0.10517 -0.15777
0.39661 -0.10402 -0.15975
0.39487 -0.10262 -0.1617
0.39298 -0.10162 -0.16374
0.39082 -0.10142 -0.16573
0.3886 -0.10177 -0.16761
0.38625 -0.10239 -0.16926
0.38376 -0.10297 -0.1707
0.38157 -0.10378 -0.17252
0.37968 -0.10427 -0.17476
0.37821 -0.10375 -0.17718
0.37683 -0.10251 -0.17936
0.37488 -0.10141 -0.1812
0.37276 -0.10077 -0.18312
0.37045 -0.10037 -0.18489
0.3682 -0.0997 -0.18672
0.36649 -0.09884 -0.18895
0.36481 -0.09793 -0.19116
0.36321 -0.09755 -0.19362
0.36168 -0.09799 -0.19606
0.35949 -0.0984 -0.19795
0.40262 -0.10284 -0.15367
0.40462 -0.10287 -0.15151
0.40077 -0.10286 -0.15598
0.39884 -0.10254 -0.15817
0.3971 -0.10143 -0.16026
0.3954 -0.10007 -0.16228
0.39354 -0.09909 -0.16438
0.39128 -0.09886 -0.16625
0.38894 -0.09918 -0.16801
0.38664 -0.09983 -0.16973
0.38425 -0.10047 -0.17133
0.38225 -0.10137 -0.17331
0.38043 -0.10188 -0.17557
0.37878 -0.10129 -0.17784
0.37715 -0.09999 -0.17988
0.37532 -0.09893 -0.1819
0.37303 -0.09823 -0.18359
0.37062 -0.0978 -0.18522
0.36855 -0.09722 -0.18727
0.36663 -0.09634 -0.18928
0.36477 -0.09543 -0.19138
0.36316 -0.09507 -0.19387
0.36194 -0.09559 -0.19652
0.36015 -0.09614 -0.19874
0.40505 -0.10028 -0.15219
0.40304 -0.10025 -0.15436
0.40115 -0.10027 -0.15663
0.39911 -0.09991 -0.15871
0.39727 -0.09879 -0.16072
0.39563 -0.09746 -0.16283
0.39362 -0.09646 -0.16477
0.39133 -0.09623 -0.16661
0.38898 -0.09657 -0.16838
0.38682 -0.09727 -0.17028
0.38478 -0.09807 -0.17223
0.38285 -0.09902 -0.17423
0.38095 -0.09949 -0.17643
0.37926 -0.09888 -0.17867
0.37767 -0.09764 -0.18079
0.3757 -0.09654 -0.1827
0.37365 -0.09601 -0.18476
0.37124 -0.09556 -0.18638
0.36889 -0.09481 -0.18799
0.36668 -0.09386 -0.18968
0.36468 -0.09293 -0.19169
0.36327 -0.09263 -0.19434
0.36183 -0.09316 -0.19686
0.36043 -0.0938 -0.19935
0.40555 -0.09778 -0.1531
0.40347 -0.09773 -0.15521
0.40141 -0.09768 -0.15733
0.3993 -0.09728 -0.15932
0.39751 -0.09619 -0.16139
0.39571 -0.09484 -0.16334
0.39358 -0.09381 -0.16514
0.39118 -0.09359 -0.16685
0.38885 -0.09394 -0.16865
0.38668 -0.09466 -0.17053
0.38466 -0.09552 -0.1725
0.38328 -0.09653 -0.17491
0.38139 -0.09705 -0.17713
0.3798 -0.09649 -0.17952
0.37787 -0.09516 -0.18132
0.3761 -0.09416 -0.18348
0.37436 -0.0938 -0.18587
0.37187 -0.09334 -0.18745
0.36928 -0.0924 -0.18856
0.36688 -0.09136 -0.19001
0.36496 -0.09044 -0.19214
0.36346 -0.09018 -0.19472
0.3618 -0.09073 -0.1971
0.36017 -0.09137 -0.19946
0.35824 -0.09345 -0.20123
0.40614 -0.09524 -0.1537
0.40404 -0.09517 -0.1558
0.4019 -0.09508 -0.15784
0.39978 -0.09469 -0.15984
0.39787 -0.09356 -0.16179
0.39605 -0.0922 -0.1637
0.39395 -0.0912 -0.16554
0.3915 -0.09095 -0.16715
0.38905 -0.09129 -0.16877
0.38674 -0.09202 -0.17047
0.3845 -0.09292 -0.17216
0.38291 -0.09397 -0.17446
0.38164 -0.09448 -0.17714
0.37995 -0.09391 -0.17949
0.3782 -0.09265 -0.18148
0.37669 -0.09171 -0.18385
0.37485 -0.09126 -0.18615
0.37233 -0.09084 -0.18771
0.36969 -0.08993 -0.18878
0.36738 -0.08892 -0.19041
0.36569 -0.08811 -0.19273
0.3639 -0.08776 -0.19506
0.36195 -0.08826 -0.19722
0.36009 -0.08892 -0.19943
0.35824 -0.09105 -0.20163
0.35812 -0.0886 -0.20157
0.4048 -0.0926 -0.15578
0.40274 -0.09252 -0.1579
0.40047 -0.09209 -0.15977
0.39855 -0.09096 -0.16173
0.3969 -0.08967 -0.16383
0.39487 -0.0887 -0.16574
0.39243 -0.08847 -0.16735
0.38994 -0.08877 -0.16887
0.38744 -0.08945 -0.17028
0.38505 -0.09033 -0.17176
0.38286 -0.09148 -0.17352
0.38137 -0.09206 -0.17616
0.38019 -0.09143 -0.17883
0.37866 -0.09019 -0.18102
0.37692 -0.08926 -0.18322
0.37498 -0.0888 -0.18537
0.37263 -0.08838 -0.18712
0.37032 -0.08751 -0.18879
0.36834 -0.08663 -0.19084
0.36638 -0.08572 -0.19288
0.36451 -0.08537 -0.19514
0.3625 -0.08586 -0.19725
0.36055 -0.0865 -0.19942
0.35866 -0.08622 -0.20167
0.40362 -0.08999 -0.15749
0.40585 -0.09013 -0.15554
0.40153 -0.0896 -0.1596
0.39973 -0.08853 -0.16169
0.39802 -0.08724 -0.16376
0.39612 -0.08635 -0.1658
0.39368 -0.08612 -0.16739
0.39119 -0.08643 -0.1689
0.38862 -0.08706 -0.17021
0.38607 -0.08787 -0.17146
0.38365 -0.08896 -0.1729
0.38147 -0.08963 -0.17502
0.38025 -0.08906 -0.17775
0.37919 -0.08782 -0.18023
[...]
CELL_DATA 1534
SCALARS brightness_temperature float
LOOKUP_TABLE default
POINT_DATA 831
CELL_DATA 1534
SCALARS emission_angle float
LOOKUP_TABLE default
POINT_DATA 831
CELL_DATA 1534
SCALARS incidence_angle float
LOOKUP_TABLE default
POINT_DATA 831
CELL_DATA 1534
SCALARS phase_angle float
LOOKUP_TABLE default
POINT_DATA 831
CELL_DATA 1534
SCALARS local_solar_time float
LOOKUP_TABLE default
POINT_DATA 831
CELL_DATA 1534
SCALARS local_solar_time_normal_vector float
LOOKUP_TABLE default
CELL_DATA 1534
SCALARS pixel_x float
LOOKUP_TABLE default
POINT_DATA 831
CELL_DATA 1534
SCALARS pixel_y float
LOOKUP_TABLE default
POINT_DATA 831
CELL_DATA 1534
SCALARS longitude float
LOOKUP_TABLE default
POINT_DATA 831
CELL_DATA 1534
SCALARS latitude float
LOOKUP_TABLE default
