# vtk DataFile Version 3.0
SHAPE_sfm_50k_v20200323
ASCII
DATASET POLYDATA
POINTS 869 float
0.35147 -0.2506 -0.13975
0.3488 -0.25211 -0.14164
0.35005 -0.24973 -0.14175
0.3486 -0.24921 -0.14383
0.34734 -0.2516 -0.14371
0.34596 -0.25068 -0.14569
0.35841 -0.2524 -0.1322
0.35576 -0.25351 -0.13395
0.35712 -0.25113 -0.13408
0.35448 -0.25263 -0.13605
0.35555 -0.25012 -0.13588
0.35411 -0.24923 -0.13786
0.35299 -0.25169 -0.13795
0.35268 -0.2482 -0.13978
0.35129 -0.24733 -0.14179
0.3498 -0.2468 -0.14385
0.3472 -0.24828 -0.14579
0.34859 -0.24598 -0.146
0.36387 -0.25389 -0.12768
0.36122 -0.25534 -0.12897
0.36219 -0.25279 -0.12933
0.35976 -0.25391 -0.13056
0.36077 -0.25139 -0.13101
0.35961 -0.25002 -0.13289
0.35831 -0.24876 -0.13474
0.35666 -0.2477 -0.13643
0.35501 -0.2467 -0.13819
0.35358 -0.24568 -0.14012
0.35225 -0.24485 -0.1422
0.3506 -0.24423 -0.14411
0.34926 -0.24336 -0.14619
0.37293 -0.25594 -0.11929
0.37076 -0.25781 -0.12103
0.37178 -0.25527 -0.12154
0.3692 -0.25713 -0.12305
0.37008 -0.25451 -0.12338
0.36819 -0.25381 -0.12502
0.36713 -0.25628 -0.12443
0.36543 -0.25513 -0.12602
0.36653 -0.25271 -0.12667
0.36494 -0.25145 -0.1283
0.3632 -0.2503 -0.12987
0.36188 -0.24897 -0.13168
0.3608 -0.24769 -0.13367
0.35939 -0.24636 -0.1354
0.35765 -0.24522 -0.13696
0.35601 -0.24424 -0.13875
0.35459 -0.24324 -0.1407
0.35316 -0.24235 -0.14269
0.35153 -0.24174 -0.14463
0.35035 -0.24097 -0.14683
0.37919 -0.25697 -0.11166
0.3768 -0.25841 -0.11303
0.37781 -0.25582 -0.11353
0.37537 -0.25747 -0.11497
0.37654 -0.255 -0.11565
0.37398 -0.25667 -0.11702
0.37531 -0.25434 -0.11784
0.374 -0.25344 -0.11992
0.37265 -0.25267 -0.122
0.37109 -0.25201 -0.12397
0.3693 -0.25142 -0.12577
0.36768 -0.25036 -0.1275
0.36604 -0.24908 -0.12907
0.36438 -0.24799 -0.13077
0.36311 -0.24672 -0.13266
0.36188 -0.24531 -0.13446
0.36043 -0.24396 -0.13614
0.35873 -0.24287 -0.13778
0.35703 -0.24184 -0.13949
0.35551 -0.24077 -0.14134
0.35405 -0.23986 -0.14331
0.35248 -0.2393 -0.14532
0.38384 -0.25898 -0.10702
0.38155 -0.26006 -0.10819
0.38259 -0.25749 -0.10875
0.3804 -0.25836 -0.10981
0.38148 -0.25584 -0.11043
0.38028 -0.25447 -0.11229
0.37897 -0.25337 -0.11427
0.37774 -0.25259 -0.11643
0.3764 -0.25185 -0.11854
0.37515 -0.25102 -0.12068
0.37389 -0.25033 -0.12286
0.3724 -0.24979 -0.12494
0.37049 -0.24908 -0.12659
0.36877 -0.24795 -0.12819
0.36721 -0.24675 -0.1299
0.36552 -0.24565 -0.13159
0.36433 -0.24446 -0.13359
0.36309 -0.24304 -0.13538
0.36159 -0.24166 -0.13702
0.35982 -0.24052 -0.13857
0.35818 -0.23956 -0.14037
0.35657 -0.2384 -0.14209
0.35511 -0.2375 -0.14408
0.35354 -0.23695 -0.14611
0.39438 -0.26119 -0.09598
0.39252 -0.26339 -0.09806
0.39348 -0.26038 -0.0984
0.39147 -0.26255 -0.10059
0.39223 -0.2594 -0.1006
0.3904 -0.25847 -0.10231
0.38981 -0.26159 -0.10263
0.38848 -0.25766 -0.10392
0.38765 -0.26051 -0.10393
0.38662 -0.25706 -0.10564
0.38552 -0.25967 -0.1052
0.38479 -0.25632 -0.10732
0.38364 -0.2549 -0.10914
0.38271 -0.25338 -0.11104
0.3817 -0.25218 -0.11312
0.38043 -0.25111 -0.11514
0.37906 -0.25022 -0.11717
0.37781 -0.24958 -0.11938
0.3766 -0.24879 -0.12156
0.37553 -0.24835 -0.12394
0.37378 -0.24753 -0.12575
0.37172 -0.24669 -0.12715
0.37 -0.24557 -0.12877
0.36844 -0.24439 -0.13051
0.36679 -0.24333 -0.13226
0.36557 -0.24211 -0.13422
0.36425 -0.24064 -0.13592
0.36269 -0.23923 -0.13749
0.36098 -0.23816 -0.13917
0.35937 -0.23722 -0.14101
0.35791 -0.23621 -0.14294
0.35631 -0.23519 -0.14474
0.35465 -0.23457 -0.14668
0.3981 -0.26093 -0.08904
0.3956 -0.26211 -0.09094
0.39751 -0.26 -0.09141
0.39515 -0.26173 -0.09351
0.39671 -0.2593 -0.09382
0.39549 -0.25848 -0.09602
0.39386 -0.25748 -0.09784
0.39231 -0.25652 -0.09972
0.39085 -0.25565 -0.1017
0.38934 -0.25493 -0.10372
0.38762 -0.25438 -0.10562
0.38589 -0.25372 -0.10746
0.38477 -0.25233 -0.10933
0.384 -0.2509 -0.11136
0.38313 -0.24978 -0.11357
0.38182 -0.2487 -0.11557
0.38057 -0.24792 -0.11773
0.37943 -0.24739 -0.12002
0.37852 -0.24694 -0.12248
0.37721 -0.2462 -0.12471
0.37521 -0.24519 -0.12617
0.37313 -0.24438 -0.12756
0.37147 -0.24333 -0.1293
0.36999 -0.24224 -0.13116
0.36828 -0.2411 -0.13279
0.36675 -0.23962 -0.13433
0.36551 -0.23824 -0.13618
0.36402 -0.23689 -0.13787
0.36234 -0.23587 -0.13962
0.36083 -0.23504 -0.1416
0.35932 -0.23399 -0.14346
0.35753 -0.2328 -0.145
0.35582 -0.23213 -0.14693
0.40023 -0.25909 -0.08974
0.39972 -0.25831 -0.09224
0.39853 -0.25712 -0.09431
0.3969 -0.25598 -0.09605
0.39515 -0.25492 -0.09771
0.39349 -0.25391 -0.09948
0.39201 -0.25305 -0.10145
0.39055 -0.25235 -0.1035
0.38894 -0.25187 -0.10554
0.38721 -0.25123 -0.10741
0.38616 -0.24989 -0.10937
0.38555 -0.24857 -0.11155
0.3847 -0.24746 -0.11378
0.3835 -0.24646 -0.11589
0.38238 -0.24578 -0.11815
0.38118 -0.24521 -0.12042
0.38024 -0.24462 -0.12289
0.3785 -0.24364 -0.12473
0.37645 -0.24271 -0.12615
0.37451 -0.24202 -0.12779
0.37306 -0.24116 -0.12981
0.37159 -0.2401 -0.13172
0.36985 -0.23893 -0.1333
0.36836 -0.23746 -0.13488
0.36693 -0.2359 -0.13645
0.36542 -0.23455 -0.13816
0.3638 -0.23361 -0.14
0.36219 -0.23273 -0.14188
0.36056 -0.23158 -0.14359
0.35896 -0.23053 -0.14541
0.3573 -0.2299 -0.14739
0.40267 -0.25792 -0.09092
0.40186 -0.25657 -0.0932
0.40044 -0.25503 -0.09491
0.39863 -0.2537 -0.09629
0.39692 -0.25267 -0.09798
0.39519 -0.25161 -0.09965
0.39347 -0.25061 -0.10134
0.3919 -0.24986 -0.10329
0.39039 -0.24944 -0.1054
0.38887 -0.24895 -0.10749
0.38796 -0.24774 -0.10962
0.38736 -0.24644 -0.11181
0.3865 -0.24534 -0.11405
0.38524 -0.24426 -0.11611
0.38392 -0.24341 -0.11823
0.38242 -0.24266 -0.12026
0.38092 -0.24187 -0.12229
0.37916 -0.24097 -0.12404
0.37734 -0.24013 -0.12576
0.37586 -0.23963 -0.12788
0.3745 -0.23884 -0.13
0.37313 -0.23785 -0.13202
0.37155 -0.23686 -0.13388
0.37006 -0.2354 -0.1355
0.36857 -0.23376 -0.13696
0.36713 -0.23251 -0.13879
0.36547 -0.23154 -0.14059
0.36365 -0.23047 -0.14217
0.36207 -0.22937 -0.14399
0.3606 -0.22844 -0.14598
0.35891 -0.22779 -0.1479
0.40575 -0.25716 -0.08965
0.40506 -0.25629 -0.09234
0.4039 -0.2545 -0.09433
0.40217 -0.25272 -0.09555
0.40026 -0.25136 -0.09677
0.39849 -0.25028 -0.09836
0.39676 -0.24924 -0.10003
0.39515 -0.24837 -0.10192
0.39342 -0.24748 -0.10367
0.39181 -0.24701 -0.10567
0.39046 -0.24668 -0.1079
0.3896 -0.24551 -0.11008
0.38907 -0.24428 -0.11236
0.38825 -0.24321 -0.11467
0.38687 -0.24199 -0.11663
0.38513 -0.24083 -0.11827
0.38314 -0.23998 -0.11978
0.38124 -0.2392 -0.12145
0.37953 -0.23832 -0.12326
0.37817 -0.23753 -0.12539
0.37684 -0.23708 -0.12762
0.37552 -0.23631 -0.12977
0.37428 -0.23538 -0.13191
0.37303 -0.23456 -0.1341
0.37164 -0.23321 -0.13589
0.37034 -0.23183 -0.13772
0.36896 -0.23066 -0.13967
0.3671 -0.22945 -0.14111
0.36519 -0.22829 -0.14255
0.36358 -0.22718 -0.14435
0.36215 -0.22629 -0.1464
0.36052 -0.22568 -0.14839
0.4075 -0.25435 -0.09033
0.40631 -0.25326 -0.09272
0.40492 -0.2515 -0.09442
0.40328 -0.24995 -0.09587
0.40144 -0.24877 -0.09736
0.39967 -0.24776 -0.09902
0.3981 -0.24685 -0.10092
0.39647 -0.24599 -0.10282
0.39458 -0.24498 -0.10441
0.39317 -0.24473 -0.1066
0.39186 -0.24445 -0.10886
0.39112 -0.2434 -0.11116
0.39064 -0.24222 -0.11355
0.38968 -0.24089 -0.1158
0.38785 -0.2393 -0.1172
0.38568 -0.23806 -0.11815
0.38355 -0.23723 -0.11948
0.38165 -0.23646 -0.12116
0.37982 -0.23558 -0.12288
0.37841 -0.23481 -0.12501
0.37726 -0.23438 -0.12736
0.37616 -0.23365 -0.12965
0.37511 -0.23278 -0.13191
0.3739 -0.23196 -0.13412
0.37284 -0.23079 -0.13623
0.37182 -0.22964 -0.13839
0.37024 -0.22828 -0.14002
0.36835 -0.22705 -0.14142
0.36657 -0.22604 -0.14312
0.36485 -0.22484 -0.14476
0.36329 -0.22385 -0.14671
0.36183 -0.22338 -0.14889
0.40647 -0.25016 -0.09253
0.40504 -0.24853 -0.09417
0.40362 -0.24704 -0.09581
0.40236 -0.24609 -0.09794
0.40085 -0.24532 -0.1
0.39918 -0.2444 -0.10185
0.39755 -0.24354 -0.10375
0.396 -0.24299 -0.10583
0.39457 -0.24266 -0.10796
0.39329 -0.24238 -0.11022
0.3927 -0.24143 -0.11271
0.39184 -0.23972 -0.11483
0.39014 -0.23791 -0.11622
0.3879 -0.23642 -0.11686
0.38582 -0.23525 -0.11799
0.38375 -0.23443 -0.11943
0.38179 -0.23367 -0.12106
0.38001 -0.23281 -0.12285
0.37851 -0.23204 -0.12493
0.3774 -0.23163 -0.12733
0.3766 -0.23096 -0.12977
0.3758 -0.23015 -0.13217
0.37477 -0.22937 -0.13448
0.37393 -0.22831 -0.13673
0.37289 -0.22716 -0.13884
0.37141 -0.22588 -0.1406
0.36964 -0.2248 -0.14224
0.36772 -0.22364 -0.14369
0.366 -0.22241 -0.14536
0.3646 -0.2216 -0.14753
0.36305 -0.22109 -0.14964
0.40703 -0.24817 -0.09002
0.40618 -0.24724 -0.09237
0.40491 -0.24562 -0.09407
0.40416 -0.24424 -0.09617
0.40316 -0.24335 -0.09844
0.40205 -0.24279 -0.1008
0.40079 -0.24233 -0.10308
0.39952 -0.24209 -0.10547
0.39778 -0.24132 -0.10749
0.39592 -0.24037 -0.10907
0.3946 -0.23999 -0.11131
0.39352 -0.23859 -0.11345
0.39177 -0.2367 -0.1146
0.38983 -0.23508 -0.11551
0.38788 -0.23362 -0.11656
0.38599 -0.23244 -0.11798
0.38398 -0.23164 -0.11951
0.38203 -0.23088 -0.12117
0.38027 -0.23003 -0.12298
0.37888 -0.2293 -0.12515
0.37784 -0.22892 -0.12759
0.37714 -0.22829 -0.13008
0.37669 -0.2276 -0.13261
0.37613 -0.22708 -0.13515
0.37554 -0.22624 -0.1376
0.37426 -0.22489 -0.13951
0.37291 -0.22378 -0.14151
0.37103 -0.22261 -0.14299
0.36914 -0.22146 -0.1445
0.36768 -0.22061 -0.14659
0.36616 -0.21961 -0.14853
0.36444 -0.2189 -0.15044
0.40751 -0.24534 -0.09023
0.40629 -0.24437 -0.0924
0.40558 -0.24285 -0.09444
0.4047 -0.24143 -0.09646
0.40376 -0.24054 -0.09875
0.40302 -0.24005 -0.10124
0.40258 -0.23988 -0.10392
0.40153 -0.23978 -0.10661
0.39936 -0.23888 -0.1084
0.39734 -0.23794 -0.10986
0.39549 -0.23722 -0.1116
0.39371 -0.23569 -0.11296
0.39188 -0.23395 -0.11389
0.39006 -0.23232 -0.11495
0.38837 -0.23085 -0.11636
0.38661 -0.2297 -0.11797
0.38471 -0.22893 -0.11965
0.38277 -0.22819 -0.12133
0.38105 -0.22735 -0.12318
0.37959 -0.22661 -0.12531
0.37838 -0.22621 -0.12769
0.37771 -0.2256 -0.13022
0.37754 -0.22502 -0.13284
0.37755 -0.22476 -0.1355
0.37735 -0.22414 -0.1382
0.37577 -0.22267 -0.13995
0.37425 -0.22142 -0.14174
0.37249 -0.22038 -0.14344
0.37087 -0.2196 -0.14541
0.36945 -0.21878 -0.14751
0.36795 -0.21782 -0.14949
0.36627 -0.21713 -0.15143
0.40858 -0.24264 -0.09044
0.40732 -0.24169 -0.09258
[...]
CELL_DATA 1611
SCALARS brightness_temperature float
LOOKUP_TABLE default
POINT_DATA 869
CELL_DATA 1611
SCALARS emission_angle float
LOOKUP_TABLE default
POINT_DATA 869
CELL_DATA 1611
SCALARS incidence_angle float
LOOKUP_TABLE default
POINT_DATA 869
CELL_DATA 1611
SCALARS phase_angle float
LOOKUP_TABLE default
POINT_DATA 869
CELL_DATA 1611
SCALARS local_solar_time float
LOOKUP_TABLE default
POINT_DATA 869
CELL_DATA 1611
SCALARS local_solar_time_normal_vector float
LOOKUP_TABLE default
CELL_DATA 1611
SCALARS pixel_x float
LOOKUP_TABLE default
POINT_DATA 869
CELL_DATA 1611
SCALARS pixel_y float
LOOKUP_TABLE default
POINT_DATA 869
CELL_DATA 1611
SCALARS longitude float
LOOKUP_TABLE default
POINT_DATA 869
CELL_DATA 1611
SCALARS latitude float
LOOKUP_TABLE default
