# vtk DataFile Version 3.0
SHAPE_sfm_50k_v20200323
ASCII
DATASET POLYDATA
POINTS 417 float
-0.08199 0.25832 0.3244
-0.08279 0.25716 0.32598
-0.08048 0.25688 0.32605
-0.08168 0.25572 0.32784
-0.07936 0.25558 0.32804
-0.08129 0.25439 0.33006
-0.07896 0.25413 0.33017
-0.08161 0.25268 0.33204
-0.07928 0.25265 0.33231
-0.08157 0.26158 0.32098
-0.08325 0.25997 0.32276
-0.08097 0.25967 0.32273
-0.07968 0.25816 0.32452
-0.07818 0.25698 0.32639
-0.07706 0.25575 0.32843
-0.07666 0.25427 0.33054
-0.07696 0.2527 0.33264
-0.07781 0.25114 0.33458
-0.0793 0.26147 0.32122
-0.07868 0.2596 0.32303
-0.0774 0.2582 0.32492
-0.0759 0.25708 0.32686
-0.07479 0.25591 0.32894
-0.07441 0.25452 0.33113
-0.07466 0.25279 0.33312
-0.07549 0.25108 0.33497
-0.07624 0.24956 0.337
-0.07857 0.24958 0.33658
-0.07898 0.24807 0.33871
-0.07663 0.24793 0.33906
-0.07703 0.26158 0.32153
-0.07641 0.25978 0.32341
-0.07512 0.25845 0.32535
-0.07367 0.25747 0.32739
-0.07256 0.2563 0.32948
-0.07212 0.25478 0.33158
-0.07235 0.25295 0.3335
-0.07316 0.25121 0.33534
-0.07389 0.24962 0.33734
-0.07428 0.24794 0.33937
-0.07694 0.24627 0.34112
-0.07459 0.24633 0.34148
-0.07672 0.24486 0.34335
-0.07436 0.24491 0.34372
-0.07612 0.24338 0.34548
-0.07376 0.24342 0.34585
-0.07546 0.24186 0.34759
-0.0731 0.24194 0.34798
-0.07467 0.24016 0.34949
-0.07232 0.24037 0.35001
-0.07375 0.23851 0.35136
-0.0714 0.23877 0.35194
-0.07284 0.23694 0.35327
-0.07048 0.23722 0.35387
-0.07199 0.23549 0.35529
-0.06956 0.23542 0.35559
-0.07124 0.23408 0.3574
-0.07493 0.26344 0.31969
-0.07478 0.26186 0.32184
-0.07418 0.2602 0.32385
-0.07297 0.25905 0.32596
-0.07149 0.25804 0.32796
-0.07035 0.25682 0.33001
-0.06986 0.25517 0.33201
-0.07006 0.25332 0.33392
-0.07085 0.25153 0.33572
-0.07155 0.24983 0.33765
-0.07194 0.24818 0.33973
-0.07224 0.24653 0.3418
-0.072 0.24499 0.34397
-0.07139 0.24353 0.34614
-0.07071 0.24201 0.34824
-0.06993 0.24046 0.35029
-0.069 0.239 0.35234
-0.06804 0.23726 0.3541
-0.06711 0.23539 0.35577
-0.0727 0.26372 0.32018
-0.07258 0.26215 0.32238
-0.07205 0.26068 0.32456
-0.07082 0.25952 0.32666
-0.0693 0.25843 0.32862
-0.06809 0.25708 0.33055
-0.06758 0.25535 0.33248
-0.06781 0.25364 0.33451
-0.0686 0.25186 0.33635
-0.06927 0.25009 0.33824
-0.06961 0.24831 0.34021
-0.06991 0.24665 0.3423
-0.06967 0.24509 0.34446
-0.06907 0.24366 0.34666
-0.06837 0.24205 0.34871
-0.06753 0.24028 0.35057
-0.06658 0.23859 0.35243
-0.06562 0.237 0.35433
-0.0647 0.2354 0.35626
-0.07054 0.26404 0.32081
-0.07038 0.26238 0.32294
-0.06989 0.26101 0.32522
-0.06862 0.25978 0.32727
-0.06703 0.25852 0.32908
-0.06579 0.25703 0.33092
-0.0653 0.25546 0.33299
-0.06553 0.25374 0.33504
-0.06632 0.25202 0.33694
-0.06699 0.25027 0.33886
-0.06733 0.24849 0.34085
-0.06762 0.24679 0.34293
-0.06738 0.24523 0.34511
-0.06675 0.24368 0.34722
-0.06603 0.242 0.34923
-0.06517 0.24019 0.35105
-0.0642 0.23849 0.35292
-0.06324 0.23696 0.35488
-0.06804 0.26584 0.31919
-0.06833 0.26416 0.3213
-0.0682 0.26259 0.32352
-0.06767 0.26114 0.32575
-0.06635 0.25973 0.32766
-0.06474 0.25838 0.32942
-0.06351 0.25706 0.33142
-0.06304 0.25562 0.33362
-0.06328 0.25393 0.3357
-0.06406 0.25217 0.33761
-0.06477 0.25052 0.33962
-0.06508 0.24867 0.34159
-0.06538 0.247 0.3437
-0.06513 0.24542 0.34589
-0.06446 0.24369 0.34788
-0.0637 0.24192 0.34982
-0.06283 0.24007 0.35162
-0.06187 0.23847 0.3536
-0.06092 0.23703 0.35566
-0.0658 0.26585 0.31961
-0.06611 0.26422 0.32177
-0.06597 0.26263 0.32399
-0.06541 0.26108 0.32617
-0.06408 0.25972 0.32812
-0.06248 0.25847 0.32998
-0.06127 0.25722 0.33206
-0.06081 0.2558 0.3343
-0.06108 0.25421 0.33648
-0.06186 0.25246 0.33841
-0.06254 0.25074 0.3404
-0.06284 0.24888 0.34237
-0.06314 0.2472 0.34451
-0.06284 0.24541 0.34654
-0.06215 0.2436 0.34847
-0.06138 0.24179 0.35038
-0.06053 0.24009 0.35235
-0.05958 0.23853 0.3544
-0.05862 0.23707 0.35644
-0.06358 0.266 0.32011
-0.06389 0.26435 0.32227
-0.06374 0.26269 0.32445
-0.06317 0.26115 0.32666
-0.06184 0.25985 0.32868
-0.06024 0.25865 0.33058
-0.05902 0.25739 0.33267
-0.05853 0.25577 0.33477
-0.05878 0.25411 0.33693
-0.0596 0.25258 0.33904
-0.06028 0.25091 0.3411
-0.06056 0.24899 0.34304
-0.06079 0.24702 0.34494
-0.06052 0.24529 0.34704
-0.05983 0.24348 0.34899
-0.05906 0.24173 0.35098
-0.05821 0.24009 0.35302
-0.05726 0.23855 0.35509
-0.06138 0.26614 0.32061
-0.06167 0.26442 0.32274
-0.0615 0.2627 0.3249
-0.06094 0.26123 0.32717
-0.05959 0.25995 0.32921
-0.05802 0.25889 0.33123
-0.05676 0.25752 0.33323
-0.05622 0.25568 0.33515
-0.05646 0.25389 0.33723
-0.05729 0.25248 0.33946
-0.058 0.25108 0.34171
-0.05828 0.24915 0.34367
-0.05846 0.24704 0.34544
-0.05817 0.2452 0.34746
-0.05749 0.24344 0.34947
-0.05672 0.24174 0.35152
-0.05588 0.24014 0.35361
-0.05488 0.23846 0.35556
-0.06069 0.26774 0.31849
-0.05914 0.26608 0.32092
-0.05845 0.26769 0.31879
-0.05943 0.26442 0.3231
-0.05927 0.26282 0.32536
-0.05869 0.26138 0.32766
-0.05737 0.26025 0.32981
-0.05583 0.25927 0.33189
-0.05451 0.25778 0.33375
-0.0539 0.25575 0.33547
-0.05411 0.25378 0.33743
-0.05494 0.25231 0.33964
-0.05564 0.25098 0.34195
-0.05595 0.24931 0.34412
-0.05614 0.24723 0.34593
-0.05582 0.24528 0.34786
-0.05514 0.24355 0.34991
-0.05438 0.24192 0.35202
-0.05351 0.24028 0.35408
-0.05248 0.23853 0.35597
-0.05688 0.26604 0.32115
-0.05619 0.26761 0.31897
-0.05718 0.26445 0.32339
-0.05702 0.26297 0.32575
-0.05649 0.26179 0.3282
-0.0553 0.26096 0.33058
-0.05366 0.25982 0.33251
-0.05222 0.25808 0.33409
-0.05157 0.25597 0.33572
-0.05174 0.25393 0.33764
-0.05257 0.2524 0.33983
-0.05326 0.25097 0.34208
-0.05357 0.24938 0.3443
-0.05381 0.24753 0.34632
-0.05349 0.2456 0.34827
-0.05281 0.24388 0.35034
-0.05203 0.24218 0.35239
-0.05114 0.24052 0.35442
-0.05461 0.26616 0.32126
-0.05392 0.26774 0.31909
-0.05491 0.26453 0.32349
-0.05477 0.26319 0.32595
-0.05436 0.26256 0.32868
-0.05312 0.26165 0.33102
-0.05137 0.26019 0.33265
-0.04992 0.25844 0.33419
-0.04927 0.25648 0.33602
-0.04947 0.25457 0.33806
-0.05024 0.25289 0.34015
-0.05092 0.25137 0.34235
-0.05122 0.24975 0.34455
-0.05148 0.24795 0.34663
-0.05119 0.24611 0.34866
-0.0505 0.24435 0.35069
-0.04967 0.24257 0.35265
-0.04876 0.24083 0.35462
-0.05307 0.26942 0.31705
-0.05166 0.26792 0.31919
-0.05081 0.26957 0.31712
-0.05233 0.26628 0.32132
-0.05264 0.26471 0.3236
-0.05252 0.26343 0.3261
-0.0521 0.26297 0.32887
-0.05081 0.26186 0.33108
-0.04906 0.2604 0.33271
-0.04766 0.25895 0.33455
-0.0471 0.2572 0.33659
-0.04733 0.25538 0.33868
-0.04809 0.25371 0.34075
-0.0487 0.25207 0.34288
-0.04897 0.25035 0.34503
-0.04919 0.24847 0.34704
-0.04895 0.24675 0.3492
-0.04819 0.24483 0.35105
-0.04732 0.24294 0.3529
-0.04638 0.24118 0.35484
-0.04938 0.26789 0.3193
-0.04854 0.26968 0.31733
-0.05006 0.26635 0.32151
-0.05038 0.26488 0.32385
-0.05024 0.26349 0.32629
-0.0498 0.26288 0.329
-0.0485 0.26167 0.33113
-0.04677 0.2606 0.33303
-0.04543 0.25939 0.33509
-0.04496 0.25784 0.33728
-0.04524 0.25613 0.33943
-0.04596 0.2544 0.34147
-0.0465 0.25266 0.34353
-0.04671 0.25084 0.3456
-0.04691 0.24888 0.34755
-0.0466 0.24697 0.34951
-0.04583 0.24502 0.35133
-0.04496 0.24317 0.35322
-0.04402 0.24146 0.3552
-0.04711 0.26804 0.31964
-0.04629 0.26986 0.31769
-0.0478 0.26651 0.32187
-0.04814 0.26516 0.32427
-0.04802 0.26388 0.32674
-0.04752 0.26276 0.32923
-0.04621 0.26177 0.33147
-0.04449 0.26078 0.33343
-0.04322 0.25984 0.33568
-0.04278 0.25838 0.33793
-0.04303 0.25662 0.34005
-0.04376 0.25493 0.34212
-0.04424 0.25307 0.3441
-0.0444 0.25112 0.34606
-0.04457 0.24908 0.34792
-0.04424 0.24711 0.34984
-0.04349 0.24522 0.35172
-0.0426 0.24337 0.35361
-0.04559 0.27166 0.31569
-0.04405 0.27008 0.31805
-0.04336 0.2719 0.31606
-0.04488 0.26832 0.32007
-0.04561 0.26695 0.32239
-0.04593 0.26553 0.32474
-0.04576 0.26406 0.3271
-0.04524 0.26287 0.32957
-0.04394 0.26194 0.33183
-0.04221 0.26098 0.33381
-0.04093 0.26007 0.33606
-0.04051 0.25872 0.33839
-0.04076 0.25697 0.34052
-0.04143 0.25515 0.34249
-0.0419 0.25322 0.34442
-0.04206 0.25131 0.34642
-0.04224 0.24933 0.34836
-0.04192 0.24736 0.35027
-0.04115 0.24546 0.35215
-0.04026 0.24365 0.35408
-0.04184 0.27041 0.31854
-0.04114 0.27225 0.31655
-0.04267 0.26864 0.32057
-0.04348 0.2675 0.32301
-0.04376 0.26595 0.32529
-0.04355 0.26441 0.32759
-0.043 0.26309 0.32999
-0.04166 0.262 0.33217
-0.03991 0.26113 0.33421
-0.03872 0.26054 0.33663
-0.03826 0.25913 0.33892
-0.03847 0.25724 0.34095
-0.03909 0.25526 0.34278
-0.03955 0.25331 0.3447
-0.03971 0.25145 0.34675
-0.03989 0.24949 0.34871
-0.03959 0.24763 0.35075
-0.03884 0.24578 0.35268
-0.03792 0.24389 0.35452
-0.03966 0.27085 0.31907
-0.03913 0.27299 0.31732
-0.0405 0.26913 0.32117
-0.04133 0.26797 0.3236
-0.04161 0.26639 0.32585
-0.04137 0.26478 0.32812
-0.04075 0.26328 0.33039
-0.03936 0.26206 0.33253
-0.03772 0.26165 0.33481
-0.03653 0.26109 0.33724
-0.03606 0.25964 0.33953
-0.03621 0.25763 0.34145
-0.03678 0.2555 0.34314
-0.03722 0.25354 0.34506
-0.03736 0.25164 0.34709
-0.03754 0.24968 0.34905
-0.03726 0.24787 0.35115
-0.03653 0.24609 0.35317
-0.03555 0.24406 0.35484
-0.03753 0.27128 0.31972
-0.03698 0.27328 0.31781
-0.03851 0.26989 0.32201
-0.03922 0.26842 0.32427
-0.03945 0.26669 0.32645
-0.03917 0.26499 0.32867
-0.03852 0.26341 0.33091
-0.03715 0.26229 0.33312
-0.03553 0.26202 0.33547
-0.03431 0.26143 0.3379
-0.03385 0.25998 0.34021
-0.03403 0.25803 0.34221
-0.0345 0.25573 0.34376
-0.03498 0.25386 0.34577
-0.03515 0.25202 0.34788
-0.03526 0.24989 0.3497
-0.03494 0.24794 0.35167
-0.03418 0.24607 0.35362
-0.03544 0.27178 0.32037
-0.03638 0.27035 0.32263
-0.03701 0.26862 0.32475
-0.03723 0.26682 0.32689
-0.03696 0.26516 0.32916
-0.03629 0.26352 0.33137
-0.03492 0.26234 0.33358
-0.03325 0.26183 0.33585
-0.03204 0.26174 0.33842
-0.03171 0.26061 0.34101
-0.03187 0.25853 0.34298
-0.03231 0.25619 0.3445
-0.03277 0.25429 0.34652
-0.03295 0.25247 0.34867
-0.03301 0.25025 0.35042
-0.03263 0.24813 0.35222
-0.03185 0.2462 0.35412
-0.03418 0.2707 0.32307
-0.03478 0.26883 0.32509
-0.03499 0.26699 0.32722
-0.03471 0.26526 0.32945
-0.03402 0.26352 0.33159
-0.03265 0.26213 0.33372
-0.03096 0.26164 0.33602
-0.0297 0.25925 0.34366
-0.0302 0.25694 0.34527
-0.03048 0.25471 0.34697
-0.03065 0.25291 0.34917
-0.03074 0.25071 0.35095
-0.03033 0.24852 0.35269
-0.02951 0.2465 0.35449
-0.03272 0.26709 0.32732
-0.03243 0.26528 0.3295
-0.03173 0.26357 0.33167
-0.02827 0.25533 0.34757
-0.02833 0.25329 0.34953
-0.02843 0.25115 0.3514
-0.02801 0.24893 0.35309
-0.02716 0.24678 0.35474
-0.02609 0.25154 0.35166
-0.02564 0.24919 0.35318
POLYGONS 751 3004
3 0 1 2
3 1 3 2
3 2 3 4
3 3 5 4
3 4 5 6
3 5 7 6
3 6 7 8
3 9 10 11
3 10 0 11
3 11 0 12
3 0 2 12
3 12 2 13
3 2 4 13
3 13 4 14
3 4 6 14
3 14 6 15
3 6 16 15
3 6 8 16
3 8 17 16
3 9 11 18
3 18 11 19
3 11 12 19
3 19 12 20
3 12 13 20
3 20 13 21
3 13 14 21
3 21 14 22
3 14 15 22
3 22 15 23
3 15 16 23
3 23 16 24
3 16 25 24
3 16 17 25
3 17 26 25
3 17 27 26
3 27 28 26
3 26 28 29
3 18 19 30
3 30 19 31
3 19 20 31
3 31 20 32
3 20 21 32
3 32 21 33
3 21 22 33
3 33 22 34
3 22 23 34
3 34 23 35
3 23 36 35
3 23 24 36
3 24 37 36
3 24 25 37
3 25 38 37
3 25 26 38
3 26 39 38
3 26 29 39
3 29 40 39
3 39 40 41
3 40 42 41
3 41 42 43
3 42 44 43
3 43 44 45
3 44 46 45
3 45 46 47
3 46 48 47
3 47 48 49
3 48 50 49
3 49 50 51
3 50 52 51
3 51 52 53
3 52 54 53
3 53 54 55
3 54 56 55
3 57 30 58
3 30 31 58
3 58 31 59
3 31 32 59
3 59 32 60
3 32 33 60
3 60 33 61
3 33 34 61
3 61 34 62
3 34 35 62
3 62 35 63
3 35 64 63
3 35 36 64
3 36 65 64
3 36 37 65
3 37 66 65
3 37 38 66
3 38 67 66
3 38 39 67
3 39 68 67
3 39 41 68
3 41 43 68
3 68 43 69
3 43 45 69
3 69 45 70
3 45 47 70
3 70 47 71
3 47 49 71
3 71 49 72
3 49 51 72
3 72 51 73
3 51 53 73
3 73 53 74
3 53 55 74
3 74 55 75
3 57 58 76
3 76 58 77
3 58 59 77
3 77 59 78
3 59 60 78
3 78 60 79
3 60 61 79
3 79 61 80
3 61 62 80
3 80 62 81
3 62 63 81
3 81 63 82
3 63 83 82
3 63 64 83
3 64 84 83
3 64 65 84
3 65 85 84
3 65 66 85
3 66 86 85
3 66 67 86
3 67 68 86
3 86 68 87
3 68 69 87
3 87 69 88
3 69 70 88
3 88 70 89
3 70 71 89
3 89 71 90
3 71 72 90
3 90 72 91
3 72 73 91
3 91 73 92
3 73 74 92
3 92 74 93
3 74 75 93
3 93 75 94
3 76 77 95
3 95 77 96
3 77 78 96
3 96 78 97
3 78 79 97
3 97 79 98
3 79 80 98
3 98 80 99
3 80 81 99
3 99 81 100
3 81 82 100
3 100 82 101
3 82 83 101
3 101 83 102
3 83 103 102
3 83 84 103
3 84 104 103
3 84 85 104
3 85 86 104
3 104 86 105
3 86 87 105
3 105 87 106
3 87 88 106
3 106 88 107
3 88 89 107
3 107 89 108
3 89 90 108
3 108 90 109
3 90 91 109
3 109 91 110
3 91 92 110
3 110 92 111
3 92 93 111
3 111 93 112
3 93 94 112
3 113 95 114
3 95 96 114
3 114 96 115
3 96 97 115
3 115 97 116
3 97 98 116
3 116 98 117
3 98 99 117
3 117 99 118
3 99 100 118
3 118 100 119
3 100 101 119
3 119 101 120
3 101 102 120
3 120 102 121
3 102 122 121
3 102 103 122
3 103 123 122
3 103 104 123
3 104 105 123
3 123 105 124
3 105 106 124
3 124 106 125
3 106 107 125
3 125 107 126
3 107 108 126
3 126 108 127
3 108 109 127
3 127 109 128
3 109 110 128
3 128 110 129
3 110 111 129
3 129 111 130
3 111 112 130
3 130 112 131
3 132 114 133
3 114 115 133
3 133 115 134
3 115 116 134
3 134 116 135
3 116 117 135
3 135 117 136
3 117 118 136
3 136 118 137
3 118 119 137
3 137 119 138
3 119 120 138
3 138 120 139
3 120 121 139
3 139 121 140
3 121 141 140
3 121 122 141
3 122 142 141
3 122 123 142
3 123 124 142
3 142 124 143
3 124 125 143
3 143 125 144
3 125 126 144
3 144 126 145
3 126 127 145
3 145 127 146
3 127 128 146
3 146 128 147
3 128 129 147
3 147 129 148
3 129 130 148
3 148 130 149
3 130 131 149
3 149 131 150
3 132 133 151
3 151 133 152
3 133 134 152
3 152 134 153
3 134 135 153
3 153 135 154
3 135 136 154
3 154 136 155
3 136 137 155
3 155 137 156
3 137 138 156
3 156 138 157
3 138 139 157
3 157 139 158
3 139 140 158
3 158 140 159
3 140 160 159
3 140 141 160
3 141 161 160
3 141 142 161
3 142 143 161
3 161 143 162
3 143 144 162
3 162 144 163
3 144 145 163
3 163 145 164
3 145 146 164
3 164 146 165
3 146 147 165
3 165 147 166
3 147 148 166
3 166 148 167
3 148 149 167
3 167 149 168
3 149 150 168
3 151 152 169
3 169 152 170
3 152 153 170
3 170 153 171
3 153 154 171
3 171 154 172
3 154 155 172
3 172 155 173
3 155 156 173
3 173 156 174
3 156 157 174
3 174 157 175
3 157 158 175
3 175 158 176
3 158 159 176
3 176 159 177
3 159 178 177
3 159 160 178
3 160 179 178
3 160 161 179
3 161 162 179
3 179 162 180
3 162 163 180
3 180 163 181
3 163 164 181
3 181 164 182
3 164 165 182
3 182 165 183
3 165 166 183
3 183 166 184
3 166 167 184
3 184 167 185
3 167 168 185
3 185 168 186
3 187 188 189
3 187 169 188
3 169 170 188
3 188 170 190
3 170 171 190
3 190 171 191
3 171 172 191
3 191 172 192
3 172 173 192
3 192 173 193
3 173 174 193
3 193 174 194
3 174 175 194
3 194 175 195
3 175 176 195
3 195 176 196
3 176 177 196
3 196 177 197
3 177 198 197
3 177 178 198
3 178 199 198
3 178 179 199
3 179 200 199
3 179 180 200
3 180 201 200
3 180 181 201
3 181 182 201
3 201 182 202
3 182 183 202
3 202 183 203
3 183 184 203
3 203 184 204
3 184 185 204
3 204 185 205
3 185 186 205
3 205 186 206
3 189 207 208
3 189 188 207
3 188 209 207
3 188 190 209
3 190 191 209
3 209 191 210
3 191 192 210
3 210 192 211
3 192 193 211
3 211 193 212
3 193 194 212
3 212 194 213
3 194 195 213
3 213 195 214
3 195 196 214
3 214 196 215
3 196 216 215
3 196 197 216
3 197 217 216
3 197 198 217
3 198 218 217
3 198 199 218
3 199 219 218
3 199 200 219
3 200 220 219
3 200 201 220
3 201 202 220
3 220 202 221
3 202 203 221
3 221 203 222
3 203 204 222
3 222 204 223
3 204 205 223
3 223 205 224
3 205 206 224
3 208 225 226
3 208 207 225
3 207 227 225
3 207 209 227
3 209 210 227
3 227 210 228
3 210 211 228
3 228 211 229
3 211 212 229
3 229 212 230
3 212 213 230
3 230 213 231
3 213 214 231
3 231 214 232
3 214 215 232
3 232 215 233
3 215 234 233
3 215 216 234
3 216 235 234
3 216 217 235
3 217 236 235
3 217 218 236
3 218 237 236
3 218 219 237
3 219 238 237
3 219 220 238
3 220 221 238
3 238 221 239
3 221 222 239
3 239 222 240
3 222 223 240
3 240 223 241
3 223 224 241
3 241 224 242
3 243 244 245
3 243 226 244
3 226 246 244
3 226 225 246
3 225 247 246
3 225 227 247
3 227 228 247
3 247 228 248
3 228 229 248
3 248 229 249
3 229 230 249
3 249 230 250
3 230 231 250
3 250 231 251
3 231 232 251
3 251 232 252
3 232 233 252
3 252 233 253
3 233 254 253
3 233 234 254
3 234 255 254
3 234 235 255
3 235 256 255
3 235 236 256
3 236 257 256
3 236 237 257
3 237 258 257
3 237 238 258
3 238 239 258
3 258 239 259
3 239 240 259
3 259 240 260
3 240 241 260
3 260 241 261
3 241 242 261
3 261 242 262
3 245 263 264
3 245 244 263
3 244 265 263
3 244 246 265
3 246 266 265
3 246 247 266
3 247 248 266
3 266 248 267
3 248 249 267
3 267 249 268
3 249 250 268
3 268 250 269
3 250 251 269
3 269 251 270
3 251 252 270
3 270 252 271
3 252 253 271
3 271 253 272
3 253 273 272
3 253 254 273
3 254 274 273
3 254 255 274
3 255 275 274
3 255 256 275
3 256 276 275
3 256 257 276
3 257 277 276
3 257 258 277
3 258 259 277
3 277 259 278
3 259 260 278
3 278 260 279
3 260 261 279
3 279 261 280
3 261 262 280
3 280 262 281
3 264 282 283
3 264 263 282
3 263 284 282
3 263 265 284
3 265 285 284
3 265 266 285
3 266 267 285
3 285 267 286
3 267 268 286
3 286 268 287
3 268 269 287
3 287 269 288
3 269 270 288
3 288 270 289
3 270 271 289
3 289 271 290
3 271 272 290
3 290 272 291
3 272 292 291
3 272 273 292
3 273 293 292
3 273 274 293
3 274 294 293
3 274 275 294
3 275 295 294
3 275 276 295
3 276 296 295
3 276 277 296
3 277 278 296
3 296 278 297
3 278 279 297
3 297 279 298
3 279 280 298
3 298 280 299
3 280 281 299
3 300 301 302
3 300 283 301
3 283 303 301
3 283 282 303
3 282 304 303
3 282 284 304
3 284 305 304
3 284 285 305
3 285 286 305
3 305 286 306
3 286 287 306
3 306 287 307
3 287 288 307
3 307 288 308
3 288 289 308
3 308 289 309
3 289 290 309
3 309 290 310
3 290 291 310
3 310 291 311
3 291 312 311
3 291 292 312
3 292 313 312
3 292 293 313
3 293 314 313
3 293 294 314
3 294 315 314
3 294 295 315
3 295 316 315
3 295 296 316
3 296 297 316
3 316 297 317
3 297 298 317
3 317 298 318
3 298 299 318
3 318 299 319
3 302 320 321
3 302 301 320
3 301 322 320
3 301 303 322
3 303 323 322
3 303 304 323
3 304 324 323
3 304 305 324
3 305 306 324
3 324 306 325
3 306 307 325
3 325 307 326
3 307 308 326
3 326 308 327
3 308 309 327
3 327 309 328
3 309 310 328
3 328 310 329
3 310 311 329
3 329 311 330
3 311 331 330
3 311 312 331
3 312 332 331
3 312 313 332
3 313 333 332
3 313 314 333
3 314 334 333
3 314 315 334
3 315 335 334
3 315 316 335
3 316 317 335
3 335 317 336
3 317 318 336
3 336 318 337
3 318 319 337
3 337 319 338
3 321 339 340
3 321 320 339
3 320 341 339
3 320 322 341
3 322 342 341
3 322 323 342
3 323 343 342
3 323 324 343
3 324 325 343
3 343 325 344
3 325 326 344
3 344 326 345
3 326 327 345
3 345 327 346
3 327 328 346
3 346 328 347
3 328 329 347
3 347 329 348
3 329 330 348
3 348 330 349
3 330 350 349
3 330 331 350
3 331 351 350
3 331 332 351
3 332 352 351
3 332 333 352
3 333 353 352
3 333 334 353
3 334 354 353
3 334 335 354
3 335 336 354
3 354 336 355
3 336 337 355
3 355 337 356
3 337 338 356
3 356 338 357
3 340 358 359
3 340 339 358
3 339 360 358
3 339 341 360
3 341 361 360
3 341 342 361
3 342 362 361
3 342 343 362
3 343 344 362
3 362 344 363
3 344 345 363
3 363 345 364
3 345 346 364
3 364 346 365
3 346 347 365
3 365 347 366
3 347 348 366
3 366 348 367
3 348 349 367
3 367 349 368
3 349 350 368
3 368 350 369
3 350 370 369
3 350 351 370
3 351 371 370
3 351 352 371
3 352 353 371
3 371 353 372
3 353 354 372
3 372 354 373
3 354 355 373
3 373 355 374
3 355 356 374
3 374 356 375
3 356 357 375
3 359 358 376
3 358 377 376
3 358 360 377
3 360 378 377
3 360 361 378
3 361 362 378
3 378 362 379
3 362 363 379
3 379 363 380
3 363 364 380
3 380 364 381
3 364 365 381
3 381 365 382
3 365 366 382
3 382 366 383
3 366 367 383
3 383 367 384
3 367 368 384
3 384 368 385
3 368 386 385
3 368 369 386
3 369 387 386
3 369 370 387
3 370 388 387
3 370 371 388
3 371 389 388
3 371 372 389
3 372 373 389
3 389 373 390
3 373 374 390
3 390 374 391
3 374 375 391
3 391 375 392
3 376 377 393
3 377 394 393
3 377 378 394
3 378 395 394
3 378 379 395
3 379 380 395
3 395 380 396
3 380 381 396
3 396 381 397
3 381 382 397
3 397 382 398
3 382 383 398
3 398 383 399
3 383 384 399
3 385 386 400
3 386 401 400
3 386 387 401
3 387 402 401
3 387 388 402
3 388 403 402
3 388 389 403
3 389 404 403
3 389 390 404
3 390 391 404
3 404 391 405
3 391 392 405
3 405 392 406
3 394 395 407
3 395 396 407
3 407 396 408
3 396 397 408
3 408 397 409
3 397 398 409
3 401 402 410
3 402 411 410
3 402 403 411
3 403 412 411
3 403 404 412
3 404 405 412
3 412 405 413
3 405 406 413
3 413 406 414
3 411 412 415
3 412 413 415
3 415 413 416
3 413 414 416
CELL_DATA 751
SCALARS brightness_temperature float
LOOKUP_TABLE default
POINT_DATA 417
CELL_DATA 751
SCALARS emission_angle float
LOOKUP_TABLE default
POINT_DATA 417
CELL_DATA 751
SCALARS incidence_angle float
LOOKUP_TABLE default
POINT_DATA 417
CELL_DATA 751
SCALARS phase_angle float
LOOKUP_TABLE default
POINT_DATA 417
CELL_DATA 751
SCALARS local_solar_time float
LOOKUP_TABLE default
POINT_DATA 417
CELL_DATA 751
SCALARS local_solar_time_normal_vector float
LOOKUP_TABLE default
CELL_DATA 751
SCALARS pixel_x float
LOOKUP_TABLE default
POINT_DATA 417
CELL_DATA 751
SCALARS pixel_y float
LOOKUP_TABLE default
POINT_DATA 417
CELL_DATA 751
SCALARS longitude float
LOOKUP_TABLE default
POINT_DATA 417
CELL_DATA 751
SCALARS latitude float
LOOKUP_TABLE default
