# vtk DataFile Version 3.0
SHAPE_sfm_50k_v20200323
ASCII
DATASET POLYDATA
POINTS 2558 float
0.32079 -0.3065 0.14424
0.31954 -0.30894 0.14298
0.32184 -0.30735 0.14211
0.32092 -0.31006 0.14118
0.32289 -0.30819 0.13997
0.32158 -0.31102 0.13892
0.32394 -0.30948 0.1381
0.32252 -0.31208 0.13685
0.32505 -0.31074 0.13623
0.32347 -0.31311 0.13476
0.32597 -0.31173 0.13412
0.32453 -0.31415 0.13272
0.32707 -0.3128 0.13213
0.32564 -0.31532 0.13079
0.32798 -0.31371 0.12997
0.3269 -0.31651 0.12894
0.32907 -0.3147 0.12794
0.28682 -0.26806 0.21702
0.2862 -0.27051 0.21617
0.28786 -0.26908 0.21499
0.28739 -0.27154 0.21421
0.28896 -0.27006 0.21297
0.28846 -0.27264 0.21223
0.28997 -0.27113 0.21095
0.28937 -0.27361 0.21012
0.29102 -0.27215 0.20892
0.2903 -0.27454 0.20798
0.29221 -0.27323 0.20701
0.29138 -0.27556 0.20596
0.2933 -0.27423 0.205
0.29214 -0.27656 0.20377
0.29423 -0.27535 0.20297
0.2932 -0.27767 0.20178
0.29528 -0.27643 0.20098
0.29424 -0.27872 0.19975
0.29626 -0.27737 0.19889
0.29523 -0.2797 0.19767
0.29731 -0.27838 0.19686
0.29622 -0.28082 0.19566
0.2983 -0.2795 0.19486
0.29715 -0.28182 0.19356
0.29921 -0.28045 0.19274
0.29812 -0.28286 0.19148
0.30018 -0.28144 0.19065
0.29917 -0.28393 0.18946
0.3013 -0.28254 0.1887
0.30027 -0.28526 0.18763
0.3023 -0.28376 0.18676
0.30136 -0.28643 0.1857
0.3033 -0.28485 0.18475
0.30236 -0.2875 0.18367
0.30432 -0.2859 0.18273
0.30336 -0.28853 0.18161
0.30544 -0.287 0.18079
0.30429 -0.28957 0.17953
0.30638 -0.28801 0.17871
0.3052 -0.29046 0.17737
0.3073 -0.28888 0.17655
0.3061 -0.29129 0.17518
0.3081 -0.28958 0.17429
0.30694 -0.29207 0.17295
0.30888 -0.29028 0.17202
0.30763 -0.29311 0.17077
0.30974 -0.29142 0.16997
0.30855 -0.29417 0.16869
0.31075 -0.29253 0.16797
0.30947 -0.29521 0.1666
0.31162 -0.29352 0.16585
0.31039 -0.29618 0.16448
0.31264 -0.29454 0.16381
0.31143 -0.29742 0.16257
0.31377 -0.29582 0.16199
0.31267 -0.2987 0.16079
0.31491 -0.29696 0.16008
0.31375 -0.2997 0.15875
0.3161 -0.29804 0.15816
0.31487 -0.30072 0.15675
0.31716 -0.29898 0.1561
0.31575 -0.30184 0.15468
0.318 -0.30006 0.15401
0.31689 -0.30303 0.15279
0.31911 -0.30123 0.1521
0.31795 -0.30407 0.15076
0.32011 -0.3022 0.15002
0.31891 -0.30489 0.14859
0.32127 -0.30322 0.14805
0.31992 -0.30581 0.14649
0.32249 -0.30439 0.14619
0.32331 -0.30502 0.14391
0.32412 -0.30555 0.14157
0.32537 -0.30662 0.13965
0.32642 -0.30795 0.13782
0.32734 -0.30899 0.13575
0.32822 -0.30992 0.13361
0.32913 -0.3108 0.13146
0.33011 -0.31177 0.12937
0.27902 -0.25722 0.2338
0.27878 -0.25978 0.23316
0.28019 -0.25832 0.2319
0.27996 -0.26093 0.23128
0.28151 -0.25947 0.23013
0.28131 -0.26208 0.22952
0.28298 -0.26064 0.22851
0.28252 -0.2633 0.22771
0.28426 -0.26188 0.22677
0.28323 -0.26421 0.22549
0.28492 -0.2627 0.2245
0.28386 -0.26499 0.2232
0.28552 -0.26343 0.22219
0.28474 -0.26584 0.221
0.28647 -0.26432 0.22005
0.28569 -0.26693 0.21895
0.28739 -0.26539 0.21798
0.28838 -0.26643 0.21594
0.28942 -0.26745 0.21392
0.29049 -0.26841 0.21189
0.29161 -0.26952 0.20995
0.29286 -0.27064 0.20811
0.29398 -0.27166 0.20614
0.29513 -0.27269 0.20418
0.2962 -0.27389 0.20228
0.29736 -0.27504 0.2004
0.29849 -0.27613 0.19848
0.29958 -0.27718 0.19652
0.30041 -0.27809 0.19436
0.3013 -0.27898 0.1922
0.30229 -0.27996 0.19013
0.30337 -0.28099 0.18814
0.30433 -0.28215 0.18616
0.3054 -0.28327 0.1842
0.30643 -0.28432 0.1822
0.30758 -0.28542 0.18028
0.30854 -0.28642 0.1782
0.30926 -0.28707 0.1759
0.30998 -0.28767 0.17359
0.31093 -0.28847 0.17143
0.31185 -0.28964 0.16944
0.31281 -0.29068 0.16739
0.3139 -0.29186 0.16549
0.31502 -0.29295 0.16356
0.31609 -0.29414 0.16165
0.31711 -0.29512 0.1596
0.31823 -0.2961 0.1576
0.31941 -0.29714 0.15567
0.32032 -0.29827 0.15364
0.32136 -0.29938 0.15167
0.32233 -0.30031 0.14957
0.32368 -0.30153 0.14784
0.32473 -0.30251 0.1458
0.32558 -0.30318 0.14355
0.32662 -0.304 0.14143
0.3278 -0.30502 0.13948
0.32871 -0.30618 0.13748
0.32959 -0.30715 0.13536
0.33054 -0.30815 0.13331
0.33154 -0.30912 0.13124
0.3323 -0.30984 0.12898
0.33109 -0.31265 0.12725
0.28068 -0.2559 0.23274
0.28198 -0.25705 0.23096
0.28341 -0.25824 0.2293
0.28508 -0.25952 0.22794
0.28629 -0.2607 0.22604
0.28673 -0.26128 0.22362
0.28729 -0.26195 0.22128
0.28817 -0.26278 0.21909
0.28906 -0.26382 0.217
0.29004 -0.26485 0.21495
0.29111 -0.26588 0.21295
0.29222 -0.26686 0.21094
0.2934 -0.268 0.20906
0.29466 -0.26912 0.20723
0.29581 -0.27014 0.20527
0.29712 -0.27128 0.20348
0.29829 -0.27256 0.20169
0.29954 -0.2738 0.19994
0.30079 -0.27502 0.19817
0.30179 -0.27593 0.19607
0.30259 -0.27677 0.19388
0.30345 -0.2776 0.19169
0.30445 -0.27856 0.18961
0.30551 -0.27953 0.18758
0.30649 -0.28069 0.1856
0.30757 -0.28181 0.18366
0.30866 -0.28289 0.18171
0.3097 -0.28385 0.17965
0.31046 -0.28464 0.17741
0.31119 -0.28527 0.17512
0.31203 -0.28594 0.17288
0.3131 -0.28683 0.17082
0.31415 -0.28811 0.16896
0.31526 -0.28931 0.16708
0.31633 -0.29043 0.16513
0.31745 -0.29148 0.16317
0.31847 -0.29256 0.16118
0.31947 -0.29348 0.15909
0.32058 -0.29443 0.15707
0.32177 -0.29546 0.15515
0.32273 -0.29665 0.15319
0.32371 -0.29768 0.15115
0.32475 -0.29868 0.14912
0.32595 -0.29976 0.14722
0.32688 -0.30061 0.14507
0.32812 -0.30173 0.1432
0.32921 -0.30266 0.14117
0.33022 -0.30342 0.13904
0.33115 -0.30462 0.13707
0.33224 -0.30588 0.1352
0.33305 -0.30667 0.13298
0.33376 -0.30727 0.13066
0.33466 -0.30815 0.12851
0.28238 -0.25453 0.23184
0.28381 -0.25573 0.23019
0.28534 -0.25695 0.22865
0.28693 -0.25815 0.22711
0.28787 -0.25914 0.22498
0.2883 -0.25972 0.22257
0.28893 -0.26041 0.22025
0.2898 -0.26121 0.21804
0.29075 -0.26229 0.216
0.29181 -0.26335 0.21401
0.29291 -0.26441 0.21203
0.29409 -0.26544 0.21008
0.29536 -0.26664 0.2083
0.29668 -0.2678 0.20654
0.29793 -0.2689 0.20469
0.2992 -0.26999 0.20285
0.30032 -0.27122 0.20099
0.30148 -0.27237 0.19911
0.30262 -0.27348 0.19719
0.3039 -0.27463 0.19539
0.30488 -0.27568 0.19334
0.30569 -0.27641 0.19109
0.30664 -0.27727 0.18896
0.30771 -0.27823 0.18692
0.3087 -0.27936 0.18493
0.30977 -0.28044 0.18295
0.31087 -0.28151 0.18099
0.31183 -0.28238 0.17884
0.31251 -0.28307 0.17654
0.31328 -0.28371 0.17426
0.3143 -0.28453 0.17213
0.31555 -0.2856 0.17025
0.31667 -0.28694 0.16847
0.31781 -0.28815 0.16661
0.3189 -0.28926 0.16466
0.31989 -0.29012 0.16253
0.3209 -0.29115 0.1605
0.32198 -0.29213 0.15848
0.3231 -0.29306 0.15646
0.32429 -0.29407 0.15452
0.32523 -0.29524 0.15253
0.32629 -0.29637 0.15058
0.3274 -0.29746 0.14863
0.32849 -0.29838 0.1466
0.32944 -0.2992 0.14443
0.33052 -0.30016 0.14237
0.33182 -0.30141 0.14063
0.33297 -0.30249 0.13872
0.3338 -0.30349 0.13662
0.33449 -0.3042 0.13434
0.33517 -0.30486 0.13203
0.33614 -0.30572 0.12988
0.3371 -0.30666 0.12778
0.28469 -0.25373 0.23
0.28334 -0.25257 0.23177
0.28621 -0.25495 0.22842
0.28773 -0.25613 0.22679
0.28884 -0.25719 0.22478
0.28955 -0.25792 0.22248
0.29026 -0.25866 0.22019
0.29118 -0.25947 0.21799
0.29206 -0.26048 0.21586
0.29318 -0.26158 0.2139
0.29428 -0.26263 0.2119
0.29552 -0.26369 0.20998
0.29692 -0.265 0.20836
0.29834 -0.26626 0.20672
0.29951 -0.26729 0.20476
0.30064 -0.26826 0.20274
0.30166 -0.26941 0.20076
0.30283 -0.27056 0.19886
0.30412 -0.27175 0.19706
0.30547 -0.27295 0.19533
0.30654 -0.27406 0.19336
0.30748 -0.27492 0.19119
0.30843 -0.27577 0.18903
0.30944 -0.27665 0.18692
0.31039 -0.27774 0.18487
0.3114 -0.27875 0.18281
0.31242 -0.27974 0.18075
0.31357 -0.28076 0.17875
0.31434 -0.28155 0.17649
0.31521 -0.2823 0.17426
0.3163 -0.28322 0.1722
0.3176 -0.28435 0.17037
0.31868 -0.2856 0.16848
0.31975 -0.28669 0.16649
0.32076 -0.2877 0.16443
0.32185 -0.28867 0.16239
0.3229 -0.28976 0.16039
0.32402 -0.29075 0.15838
0.32513 -0.29163 0.1563
0.32617 -0.29247 0.15419
0.32716 -0.29368 0.15224
0.32831 -0.29491 0.15039
0.32967 -0.29641 0.14889
0.33085 -0.29756 0.147
0.33179 -0.29817 0.14474
0.33278 -0.29885 0.1425
0.33403 -0.30015 0.14067
0.33537 -0.30153 0.13902
0.33616 -0.30239 0.13676
0.33652 -0.30264 0.13426
0.33729 -0.30335 0.13197
0.33807 -0.30401 0.12967
0.33901 -0.3049 0.12752
0.2856 -0.25175 0.23012
0.2845 -0.25074 0.23216
0.28697 -0.2529 0.22834
0.28841 -0.25407 0.22663
0.28967 -0.25517 0.22473
0.29071 -0.25607 0.22261
0.29161 -0.25692 0.22041
0.29248 -0.25768 0.21817
0.29336 -0.25866 0.21601
0.29438 -0.25968 0.21393
0.29552 -0.26074 0.21194
0.29681 -0.26184 0.21004
0.2982 -0.26314 0.20837
0.29962 -0.26438 0.2067
0.30081 -0.26544 0.20476
0.30187 -0.26635 0.20266
0.30294 -0.26752 0.20067
0.30421 -0.26872 0.19883
0.30566 -0.27005 0.19723
0.30703 -0.27127 0.19552
0.30806 -0.27232 0.19347
0.30908 -0.27324 0.19136
0.31007 -0.27412 0.18921
0.31106 -0.27497 0.18705
0.31192 -0.27596 0.1849
0.31282 -0.27687 0.18272
0.31384 -0.27784 0.18063
0.31502 -0.27888 0.17866
0.31607 -0.27992 0.17661
0.31707 -0.28082 0.17448
0.31827 -0.28189 0.17253
0.31957 -0.28299 0.17066
0.32056 -0.28409 0.16861
0.32154 -0.28506 0.1665
0.3226 -0.28611 0.16448
0.32381 -0.28723 0.16258
0.32497 -0.28842 0.16066
0.32608 -0.28934 0.15855
0.32692 -0.2899 0.15622
0.32781 -0.29061 0.15397
0.3288 -0.29182 0.15198
0.33019 -0.29326 0.15047
0.33171 -0.29496 0.1494
0.33313 -0.29685 0.14822
0.33411 -0.29785 0.14596
0.33503 -0.29814 0.14358
0.336 -0.29867 0.14131
0.3367 -0.29922 0.13894
0.33756 -0.30018 0.13677
0.33836 -0.30085 0.13447
0.33896 -0.30139 0.13208
0.33973 -0.30203 0.12976
0.34065 -0.30288 0.12756
0.28659 -0.24983 0.23046
0.28526 -0.24869 0.23229
0.28787 -0.25093 0.22857
0.28931 -0.25209 0.22684
0.29061 -0.25321 0.22496
0.29179 -0.25419 0.22294
0.29281 -0.25512 0.2208
0.29378 -0.25593 0.21861
0.29465 -0.25689 0.21642
0.29572 -0.25792 0.21436
0.2968 -0.25891 0.21229
0.29803 -0.25995 0.21032
0.29929 -0.26114 0.20845
0.30066 -0.26237 0.20671
0.30193 -0.26348 0.20482
0.30309 -0.26444 0.20279
0.30421 -0.26563 0.20083
0.30554 -0.26689 0.19905
0.30703 -0.26825 0.19751
0.3085 -0.26952 0.19587
0.30957 -0.27059 0.19383
0.3106 -0.27151 0.19171
0.31164 -0.27243 0.18959
0.31259 -0.27324 0.18738
0.3134 -0.27416 0.18517
0.31424 -0.27499 0.18291
0.31532 -0.276 0.18085
0.31648 -0.27701 0.17884
0.31763 -0.27814 0.17688
0.31883 -0.27927 0.17496
0.32003 -0.28031 0.17298
[...]
CELL_DATA 4899
SCALARS brightness_temperature float
LOOKUP_TABLE default
POINT_DATA 2558
CELL_DATA 4899
SCALARS emission_angle float
LOOKUP_TABLE default
POINT_DATA 2558
CELL_DATA 4899
SCALARS incidence_angle float
LOOKUP_TABLE default
POINT_DATA 2558
CELL_DATA 4899
SCALARS phase_angle float
LOOKUP_TABLE default
POINT_DATA 2558
CELL_DATA 4899
SCALARS local_solar_time float
LOOKUP_TABLE default
POINT_DATA 2558
CELL_DATA 4899
SCALARS local_solar_time_normal_vector float
LOOKUP_TABLE default
CELL_DATA 4899
SCALARS pixel_x float
LOOKUP_TABLE default
POINT_DATA 2558
CELL_DATA 4899
SCALARS pixel_y float
LOOKUP_TABLE default
POINT_DATA 2558
CELL_DATA 4899
SCALARS longitude float
LOOKUP_TABLE default
POINT_DATA 2558
CELL_DATA 4899
SCALARS latitude float
LOOKUP_TABLE default
