# vtk DataFile Version 3.0
SHAPE_sfm_50k_v20200323
ASCII
DATASET POLYDATA
POINTS 4847 float
0.0579 0.11117 -0.44848
0.0592 0.11401 -0.44692
0.06021 0.1113 -0.44698
0.0573 0.11399 -0.44892
0.05838 0.11673 -0.44638
0.06319 0.10036 -0.44611
0.06311 0.10325 -0.44602
0.06593 0.10078 -0.44573
0.06583 0.10366 -0.44561
0.06527 0.10649 -0.44556
0.06258 0.10609 -0.44614
0.06404 0.10908 -0.44566
0.06146 0.10871 -0.44658
0.06268 0.11164 -0.44581
0.06143 0.1142 -0.44531
0.06036 0.11674 -0.44444
0.05942 0.11931 -0.44355
0.06857 0.09571 -0.44599
0.0659 0.0979 -0.44592
0.0686 0.09858 -0.44578
0.06863 0.10146 -0.44569
0.06853 0.10433 -0.44551
0.06794 0.10713 -0.44521
0.06666 0.10969 -0.44502
0.06516 0.11214 -0.44472
0.06385 0.11463 -0.44406
0.06275 0.1171 -0.44309
0.06176 0.11961 -0.44208
0.07173 0.09103 -0.44654
0.06882 0.09288 -0.4464
0.07143 0.09385 -0.44621
0.07118 0.09667 -0.44582
0.07122 0.09953 -0.44564
0.07125 0.10241 -0.44559
0.07115 0.1053 -0.44542
0.07054 0.10806 -0.44479
0.06919 0.11052 -0.44424
0.06764 0.1129 -0.44379
0.0663 0.11534 -0.44305
0.0652 0.1178 -0.44205
0.06419 0.12025 -0.44094
0.07412 0.08618 -0.44624
0.07184 0.08817 -0.44675
0.07441 0.08903 -0.4461
0.07433 0.0919 -0.446
0.07405 0.09474 -0.44584
0.07381 0.09757 -0.44552
0.07384 0.10041 -0.44528
0.07387 0.10328 -0.4451
0.07379 0.10619 -0.44477
0.07309 0.10888 -0.4439
0.07166 0.11125 -0.44317
0.07011 0.11362 -0.44274
0.06883 0.11615 -0.44221
0.06772 0.11861 -0.4412
0.0667 0.12102 -0.44004
0.07589 0.08418 -0.44578
0.07668 0.0869 -0.4454
0.07692 0.08973 -0.44511
0.07683 0.09259 -0.44497
0.07657 0.09543 -0.44484
0.07635 0.09827 -0.4446
0.07637 0.10111 -0.44427
0.0763 0.10394 -0.44384
0.07606 0.10674 -0.44314
0.07531 0.10937 -0.44224
0.07399 0.11185 -0.44177
0.07246 0.11424 -0.4414
0.0712 0.11677 -0.44087
0.07011 0.11924 -0.43991
0.06912 0.1217 -0.43885
0.06582 0.12345 -0.4388
0.06829 0.1242 -0.43776
0.07476 0.08159 -0.44627
0.07728 0.08248 -0.44546
0.07841 0.08508 -0.44498
0.07916 0.08778 -0.44446
0.07931 0.09058 -0.44394
0.07916 0.09343 -0.44368
0.07892 0.09627 -0.44359
0.07872 0.0991 -0.44339
0.07866 0.10191 -0.4429
0.07844 0.10468 -0.4422
0.07803 0.10737 -0.44128
0.07731 0.11001 -0.44042
0.07607 0.11255 -0.44007
0.0746 0.11498 -0.43981
0.07335 0.1175 -0.43928
0.07227 0.11997 -0.43834
0.07131 0.12245 -0.43731
0.07054 0.12503 -0.43637
0.07765 0.07828 -0.44566
0.07609 0.07989 -0.44594
0.07858 0.08093 -0.44525
0.07979 0.08351 -0.44481
0.08091 0.08611 -0.44426
0.0816 0.08876 -0.44351
0.0817 0.09154 -0.44286
0.08154 0.09438 -0.44259
0.08131 0.09722 -0.44252
0.08105 0.10004 -0.44218
0.08086 0.10279 -0.44144
0.08048 0.10545 -0.44048
0.07994 0.10804 -0.43937
0.0792 0.11066 -0.4385
0.07807 0.11327 -0.43831
0.07673 0.1158 -0.43826
0.07551 0.11834 -0.43778
0.07443 0.1208 -0.43682
0.07347 0.12328 -0.4358
0.07275 0.12591 -0.43496
0.0796 0.07642 -0.44535
0.08018 0.07919 -0.44502
0.08114 0.08184 -0.4447
0.08237 0.08439 -0.44428
0.08348 0.08694 -0.44361
0.08413 0.08951 -0.44262
0.08422 0.09227 -0.44192
0.08405 0.09511 -0.44164
0.08376 0.09794 -0.44144
0.08341 0.10071 -0.44088
0.08313 0.1034 -0.43998
0.08265 0.10597 -0.43884
0.08207 0.10851 -0.43767
0.08133 0.11112 -0.4368
0.0802 0.11373 -0.43662
0.07899 0.11633 -0.43679
0.07782 0.11891 -0.43642
0.07673 0.12135 -0.43542
0.07577 0.12383 -0.43439
0.07506 0.12647 -0.43358
0.08169 0.07398 -0.44486
0.08222 0.07676 -0.44455
0.08284 0.07952 -0.44436
0.08385 0.08217 -0.4442
0.0851 0.08471 -0.44378
0.08618 0.08721 -0.44292
0.08677 0.08973 -0.44176
0.08688 0.09248 -0.44109
0.08669 0.09529 -0.44075
0.08632 0.09808 -0.44035
0.08591 0.1008 -0.43966
0.08558 0.10344 -0.43865
0.08508 0.10598 -0.43749
0.08449 0.10849 -0.4363
0.08375 0.1111 -0.43543
0.08252 0.11365 -0.43511
0.08129 0.11624 -0.43526
0.0803 0.11891 -0.43516
0.07924 0.1214 -0.43426
0.07821 0.1238 -0.43309
0.07749 0.12641 -0.43224
0.07704 0.12906 -0.43134
0.08348 0.06822 -0.44454
0.08125 0.0712 -0.44527
0.08374 0.07101 -0.4441
0.08424 0.07379 -0.44381
0.08479 0.07656 -0.44358
0.08545 0.07931 -0.44349
0.08646 0.08193 -0.4433
0.08766 0.08443 -0.44271
0.08868 0.08689 -0.44173
0.08938 0.08947 -0.44085
0.08955 0.09224 -0.44036
0.08935 0.09503 -0.44
0.08894 0.09778 -0.43948
0.0885 0.10047 -0.43873
0.08815 0.10307 -0.43768
0.08764 0.10559 -0.43651
0.08706 0.10809 -0.43533
0.0863 0.11066 -0.43442
0.085 0.11314 -0.43397
0.08355 0.1156 -0.43379
0.08251 0.11822 -0.43363
0.0817 0.12087 -0.43311
0.08073 0.12333 -0.43208
0.08001 0.12593 -0.43123
0.07956 0.12857 -0.43034
0.08589 0.0653 -0.44398
0.08602 0.06804 -0.44341
0.08627 0.07081 -0.44296
0.08673 0.07357 -0.44263
0.08727 0.07633 -0.44239
0.08792 0.07905 -0.44228
0.08886 0.08166 -0.44192
0.08996 0.08412 -0.44116
0.09108 0.08657 -0.44034
0.09194 0.08919 -0.43978
0.09223 0.09196 -0.43962
0.09207 0.09476 -0.43942
0.09162 0.09746 -0.4388
0.09112 0.10007 -0.43789
0.09076 0.10264 -0.43682
0.09029 0.10519 -0.43576
0.08974 0.10771 -0.43467
0.08898 0.11026 -0.43375
0.08764 0.11267 -0.43322
0.0861 0.11501 -0.43281
0.08485 0.11747 -0.43233
0.08399 0.12007 -0.43175
0.08321 0.12266 -0.43103
0.08248 0.12524 -0.4302
0.08203 0.12786 -0.42933
0.08165 0.13034 -0.42809
0.0791 0.13097 -0.42893
0.08853 0.06024 -0.44404
0.08584 0.06257 -0.44465
0.08837 0.06299 -0.44359
0.08845 0.06571 -0.44297
0.0886 0.06843 -0.44243
0.08885 0.07117 -0.44197
0.08927 0.0739 -0.44153
0.08977 0.07663 -0.44123
0.09034 0.07933 -0.44096
0.09121 0.08191 -0.44046
0.09237 0.08436 -0.43976
0.09362 0.08682 -0.43916
0.09457 0.08942 -0.43884
0.09489 0.09217 -0.43881
0.09477 0.09497 -0.43875
0.09433 0.09767 -0.43815
0.09379 0.1002 -0.43709
0.09341 0.10271 -0.43595
0.09296 0.10529 -0.43499
0.09244 0.10785 -0.43402
0.09167 0.11037 -0.4331
0.09034 0.11276 -0.43258
0.0888 0.11506 -0.43215
0.08751 0.11742 -0.43147
0.08656 0.11992 -0.43068
0.08576 0.12249 -0.42995
0.08499 0.125 -0.42904
0.0845 0.12758 -0.42811
0.08418 0.13012 -0.42702
0.08145 0.13277 -0.4267
0.08406 0.13264 -0.42583
0.09104 0.05548 -0.44382
0.08872 0.05751 -0.4445
0.09114 0.05818 -0.44328
0.09095 0.0609 -0.44284
0.09083 0.06365 -0.44247
0.09096 0.06637 -0.44197
0.09115 0.06909 -0.44154
0.09141 0.0718 -0.44108
0.09181 0.0745 -0.4406
0.0923 0.0772 -0.44022
0.09282 0.07988 -0.43981
0.0937 0.08244 -0.43928
0.09494 0.08486 -0.43873
0.09626 0.0873 -0.43834
0.09724 0.08988 -0.43812
0.09754 0.09262 -0.43804
0.09739 0.09539 -0.43787
0.09694 0.09807 -0.43724
0.09641 0.10059 -0.43621
0.09602 0.1031 -0.43509
0.09558 0.10567 -0.43416
0.09509 0.10826 -0.43331
0.09432 0.11075 -0.43239
0.09299 0.11313 -0.43189
0.09148 0.11545 -0.43159
0.0902 0.1178 -0.43089
0.08921 0.12018 -0.42989
0.08835 0.12265 -0.42897
0.08756 0.12511 -0.42799
0.08704 0.12764 -0.42699
0.08674 0.1302 -0.42598
0.08664 0.13274 -0.42489
0.08409 0.13515 -0.42462
0.08671 0.13529 -0.42382
0.09348 0.05038 -0.44349
0.09087 0.05277 -0.44435
0.09336 0.05309 -0.44311
0.09349 0.05577 -0.44253
0.09356 0.05845 -0.44192
0.09339 0.06118 -0.44153
0.0933 0.06391 -0.44125
0.0935 0.06664 -0.44091
0.09374 0.06936 -0.44059
0.09402 0.07206 -0.44019
0.09443 0.07474 -0.43971
0.09492 0.07743 -0.43934
0.09545 0.0801 -0.43895
0.09637 0.08265 -0.43851
0.09767 0.08505 -0.43816
0.09902 0.08745 -0.4379
0.09999 0.09001 -0.43761
0.10021 0.09271 -0.43723
0.09996 0.09541 -0.43677
0.09949 0.09805 -0.43611
0.09899 0.1006 -0.43518
0.09863 0.10312 -0.43413
0.09819 0.10568 -0.43322
0.09772 0.10827 -0.43245
0.09695 0.11075 -0.43156
0.09561 0.11311 -0.43107
0.09413 0.11546 -0.43084
0.0929 0.11785 -0.43032
0.09191 0.1202 -0.42929
0.09099 0.12255 -0.42817
0.0902 0.12498 -0.42718
0.08962 0.12743 -0.42606
0.08932 0.12997 -0.42506
0.0892 0.13248 -0.42394
0.08926 0.13501 -0.42286
0.09388 0.0449 -0.44376
0.09625 0.04767 -0.44254
0.09642 0.04494 -0.44256
0.09369 0.04764 -0.4437
0.09604 0.05039 -0.44232
0.09591 0.05309 -0.44196
0.09603 0.05575 -0.44134
0.09609 0.05841 -0.44073
0.09592 0.06112 -0.44033
0.09582 0.06384 -0.44004
0.09601 0.06656 -0.43973
0.09626 0.06927 -0.43945
0.09656 0.07196 -0.4391
0.09699 0.07463 -0.4387
0.09751 0.07731 -0.43838
0.0981 0.07997 -0.43815
0.09909 0.08252 -0.43794
0.10043 0.08491 -0.43778
0.1018 0.08728 -0.43759
0.10276 0.08982 -0.43724
0.10289 0.09244 -0.43651
0.10248 0.09502 -0.43567
0.10195 0.0976 -0.43489
0.10148 0.10015 -0.43402
0.10111 0.10265 -0.43297
0.10068 0.10522 -0.4321
0.10021 0.10779 -0.43132
0.0995 0.11033 -0.43061
0.09818 0.11269 -0.43014
0.09668 0.11501 -0.42989
0.09545 0.11737 -0.42937
0.09448 0.11972 -0.42843
0.09356 0.12204 -0.4273
0.09274 0.12444 -0.42626
0.09221 0.12692 -0.42525
0.09187 0.12941 -0.4242
0.09176 0.13192 -0.42312
0.09177 0.13439 -0.42196
0.09175 0.13684 -0.42075
0.09877 0.03453 -0.43989
0.09627 0.03685 -0.44125
0.09894 0.03718 -0.44047
0.09657 0.0395 -0.44192
0.09919 0.03985 -0.441
0.09659 0.04221 -0.44238
0.09919 0.04254 -0.44139
0.09904 0.04526 -0.4416
0.09887 0.04798 -0.44157
0.09864 0.05068 -0.44131
0.09847 0.05336 -0.44086
0.0986 0.05602 -0.44026
0.09869 0.05867 -0.43973
0.09853 0.06136 -0.43937
0.09839 0.06406 -0.439
0.09851 0.06675 -0.43853
0.09871 0.06943 -0.43815
0.099 0.07211 -0.43781
0.09948 0.07478 -0.4375
0.10005 0.07744 -0.43732
0.10071 0.08008 -0.43723
0.10175 0.0826 -0.43718
0.10313 0.08497 -0.43707
0.10451 0.08734 -0.43685
0.10549 0.08988 -0.4365
0.10555 0.09247 -0.43563
0.10505 0.09495 -0.43458
0.10444 0.09743 -0.43364
0.10396 0.09997 -0.43277
0.10362 0.10248 -0.43178
0.10315 0.10499 -0.43084
0.10267 0.10757 -0.43007
0.10197 0.11011 -0.42938
0.10072 0.11252 -0.42909
0.09923 0.11479 -0.42884
0.09792 0.11706 -0.42818
0.09694 0.11939 -0.42722
0.09604 0.12173 -0.42615
0.09522 0.12411 -0.42509
0.09472 0.12663 -0.42416
0.09442 0.12916 -0.4232
0.09423 0.1316 -0.42199
0.09417 0.134 -0.42071
0.09412 0.13641 -0.41946
0.09381 0.13887 -0.41838
0.10832 0.00274 -0.43229
0.10625 0.00449 -0.4328
0.10888 0.00525 -0.43213
0.10589 0.00709 -0.43294
0.10853 0.00785 -0.43231
0.10785 0.0104 -0.4327
0.1052 0.00965 -0.43331
0.10703 0.01289 -0.43325
0.10437 0.01214 -0.43383
0.10593 0.0152 -0.43402
0.10328 0.01447 -0.43461
0.10449 0.01726 -0.435
[...]
CELL_DATA 9334
SCALARS brightness_temperature float
LOOKUP_TABLE default
POINT_DATA 4847
CELL_DATA 9334
SCALARS emission_angle float
LOOKUP_TABLE default
POINT_DATA 4847
CELL_DATA 9334
SCALARS incidence_angle float
LOOKUP_TABLE default
POINT_DATA 4847
CELL_DATA 9334
SCALARS phase_angle float
LOOKUP_TABLE default
POINT_DATA 4847
CELL_DATA 9334
SCALARS local_solar_time float
LOOKUP_TABLE default
POINT_DATA 4847
CELL_DATA 9334
SCALARS local_solar_time_normal_vector float
LOOKUP_TABLE default
CELL_DATA 9334
SCALARS pixel_x float
LOOKUP_TABLE default
POINT_DATA 4847
CELL_DATA 9334
SCALARS pixel_y float
LOOKUP_TABLE default
POINT_DATA 4847
CELL_DATA 9334
SCALARS longitude float
LOOKUP_TABLE default
POINT_DATA 4847
CELL_DATA 9334
SCALARS latitude float
LOOKUP_TABLE default
