# vtk DataFile Version 3.0
SHAPE_sfm_50k_v20200323
ASCII
DATASET POLYDATA
POINTS 3488 float
0.40777 0.0364 -0.17468
0.40576 0.03373 -0.17706
0.40627 0.03636 -0.1773
0.40412 0.03572 -0.17932
0.40417 0.03306 -0.17948
0.4026 0.03426 -0.18149
0.41467 0.03812 -0.16508
0.41299 0.03563 -0.16738
0.4129 0.03833 -0.16751
0.41131 0.03598 -0.16985
0.41134 0.03867 -0.17005
0.40937 0.03622 -0.17213
0.40941 0.03891 -0.17233
0.4077 0.03907 -0.1748
0.40618 0.03904 -0.1774
0.40419 0.03837 -0.17955
0.40254 0.03691 -0.18161
0.40139 0.03567 -0.18408
0.40163 0.03304 -0.18407
0.3998 0.03446 -0.18626
0.39992 0.03183 -0.18616
0.39814 0.0328 -0.1881
0.4222 0.04037 -0.1561
0.42004 0.03842 -0.15793
0.42022 0.04112 -0.15825
0.41834 0.03862 -0.16039
0.41841 0.04132 -0.16062
0.41647 0.03832 -0.16271
0.41661 0.041 -0.16302
0.41499 0.04077 -0.16551
0.41314 0.04102 -0.16786
0.41168 0.04131 -0.17049
0.40952 0.04158 -0.17257
0.40763 0.04174 -0.1749
0.40597 0.0417 -0.17738
0.40445 0.041 -0.17988
0.40281 0.03954 -0.18194
0.40105 0.03829 -0.18399
0.3995 0.03706 -0.18615
0.39794 0.03541 -0.18806
0.39643 0.03392 -0.19013
0.39668 0.03133 -0.19023
0.39471 0.03354 -0.19249
0.39498 0.03097 -0.19262
0.39322 0.03342 -0.19508
0.42663 0.04162 -0.15236
0.4243 0.03947 -0.15416
0.42453 0.0422 -0.15439
0.42245 0.04308 -0.15637
0.42054 0.0438 -0.15859
0.41876 0.04398 -0.16099
0.41694 0.04366 -0.16335
0.41547 0.0434 -0.16594
0.41395 0.04357 -0.16853
0.412 0.04398 -0.17081
0.40961 0.04427 -0.17264
0.4077 0.04442 -0.17496
0.40603 0.04437 -0.17744
0.40446 0.04367 -0.17991
0.40304 0.04221 -0.18217
0.40105 0.04093 -0.184
0.39937 0.03968 -0.18602
0.39791 0.03802 -0.188
0.39627 0.03652 -0.18995
0.39474 0.03613 -0.19243
0.39352 0.03596 -0.19515
0.43457 0.04379 -0.14374
0.43282 0.04128 -0.1459
0.43258 0.04402 -0.14595
0.43077 0.04138 -0.14806
0.43065 0.04413 -0.14823
0.42879 0.04148 -0.15031
0.42896 0.04419 -0.1507
0.42699 0.04428 -0.15294
0.42484 0.04487 -0.15491
0.42261 0.04579 -0.15671
0.42077 0.04647 -0.15899
0.41897 0.04665 -0.16135
0.41704 0.04634 -0.16362
0.41532 0.0461 -0.16603
0.41388 0.0463 -0.16867
0.41197 0.04669 -0.17096
0.40976 0.04694 -0.17298
0.40785 0.04708 -0.17527
0.40609 0.04703 -0.17768
0.40431 0.04633 -0.17999
0.4026 0.04485 -0.18198
0.40086 0.04356 -0.184
0.39944 0.04229 -0.18621
0.39807 0.04061 -0.18823
0.39637 0.03912 -0.19015
0.39485 0.0387 -0.19261
0.39356 0.03852 -0.1953
0.44033 0.04573 -0.13738
0.43794 0.04374 -0.13881
0.43826 0.04643 -0.13941
0.43607 0.0438 -0.14115
0.43609 0.04656 -0.14146
0.43433 0.04656 -0.14389
0.43249 0.04679 -0.14623
0.43074 0.04685 -0.14864
0.42913 0.04687 -0.15116
0.42706 0.04699 -0.15328
0.42506 0.04755 -0.15539
0.42279 0.04847 -0.15711
0.42078 0.04918 -0.15924
0.41884 0.04936 -0.16149
0.41702 0.04903 -0.16384
0.41518 0.04879 -0.16615
0.41362 0.04898 -0.1687
0.4119 0.04938 -0.17112
0.40999 0.04959 -0.17341
0.40798 0.04974 -0.17562
0.40588 0.0497 -0.17773
0.40406 0.04898 -0.17997
0.40245 0.04749 -0.182
0.40089 0.0462 -0.18416
0.39968 0.04491 -0.18647
0.39824 0.04321 -0.18843
0.39689 0.04165 -0.19055
0.39529 0.04123 -0.19295
0.39382 0.04105 -0.19553
0.45809 0.05076 -0.10806
0.45654 0.04852 -0.10999
0.45644 0.05136 -0.11046
0.45499 0.04907 -0.11247
0.45495 0.0519 -0.11297
0.45367 0.04892 -0.1151
0.45354 0.05176 -0.11554
0.45197 0.05076 -0.11781
0.45211 0.04793 -0.11738
0.45033 0.04956 -0.12002
0.45049 0.04673 -0.11963
0.44882 0.0485 -0.12237
0.4448 0.04722 -0.13021
0.44344 0.04462 -0.1324
0.44335 0.04739 -0.1328
0.44205 0.04498 -0.13503
0.44174 0.04777 -0.13527
0.44013 0.04851 -0.13768
0.43823 0.04917 -0.13985
0.43606 0.0493 -0.14188
0.43433 0.04929 -0.14434
0.43273 0.04948 -0.14684
0.43084 0.04955 -0.14913
0.42923 0.04956 -0.15164
0.42736 0.04963 -0.15394
0.4252 0.05024 -0.15587
0.42289 0.05116 -0.15753
0.42075 0.05189 -0.1595
0.41882 0.05206 -0.16177
0.41709 0.05171 -0.16417
0.41539 0.05145 -0.16659
0.41372 0.05165 -0.16905
0.41203 0.05205 -0.17149
0.40997 0.05228 -0.17364
0.40776 0.05242 -0.17565
0.40564 0.05235 -0.17773
0.40362 0.0516 -0.17978
0.40243 0.05014 -0.18211
0.40093 0.04884 -0.18431
0.39945 0.04754 -0.18643
0.3983 0.04584 -0.18853
0.39716 0.04426 -0.19075
0.39553 0.04381 -0.19313
0.39423 0.04359 -0.19579
0.46302 0.0524 -0.10143
0.46154 0.05027 -0.10324
0.46118 0.05313 -0.10357
0.45978 0.05053 -0.10562
0.45952 0.05339 -0.10601
0.45802 0.0536 -0.10856
0.45652 0.05418 -0.11106
0.45501 0.05473 -0.11356
0.45332 0.0546 -0.11595
0.45201 0.05357 -0.11835
0.45064 0.05232 -0.12071
0.44883 0.0513 -0.12285
0.4472 0.05058 -0.12524
0.44742 0.04777 -0.12489
0.44624 0.04734 -0.1276
0.44598 0.05013 -0.12793
0.44457 0.05001 -0.13054
0.44313 0.05018 -0.13314
0.44153 0.05057 -0.13563
0.44026 0.05126 -0.13828
0.438 0.05194 -0.14014
0.43607 0.05204 -0.14237
0.43435 0.05201 -0.14484
0.4329 0.05215 -0.14743
0.4311 0.0522 -0.14976
0.42922 0.05225 -0.15206
0.42727 0.05234 -0.15427
0.42511 0.05294 -0.15619
0.42293 0.05385 -0.15803
0.42078 0.05459 -0.15997
0.41888 0.05473 -0.16224
0.41719 0.05436 -0.16466
0.41547 0.0541 -0.16706
0.41384 0.05429 -0.16956
0.41193 0.05472 -0.17182
0.40973 0.05496 -0.17379
0.40753 0.05509 -0.17579
0.40535 0.05501 -0.1778
0.40349 0.05425 -0.18
0.40206 0.05276 -0.18218
0.40074 0.05147 -0.18448
0.39921 0.05015 -0.18658
0.3978 0.04841 -0.18849
0.39683 0.04686 -0.19078
0.39537 0.04638 -0.19328
0.39395 0.04616 -0.19585
0.46872 0.05362 -0.09229
0.46763 0.05135 -0.09402
0.4669 0.05412 -0.09459
0.4659 0.05125 -0.09648
0.46515 0.05402 -0.09702
0.46447 0.05153 -0.09907
0.46341 0.05424 -0.09945
0.46182 0.05506 -0.10172
0.46034 0.05587 -0.10405
0.45896 0.05616 -0.10664
0.45775 0.05637 -0.10935
0.4563 0.05693 -0.1119
0.45484 0.05747 -0.11441
0.45326 0.05733 -0.11683
0.45189 0.0563 -0.11919
0.45035 0.05507 -0.12142
0.44868 0.05402 -0.12364
0.44715 0.05329 -0.12607
0.44564 0.05285 -0.1286
0.44423 0.05273 -0.13123
0.44277 0.05293 -0.13383
0.44179 0.05321 -0.13667
0.4398 0.05398 -0.13884
0.4377 0.05462 -0.14087
0.43596 0.0547 -0.14321
0.43434 0.05463 -0.14572
0.43269 0.05478 -0.14817
0.43085 0.05482 -0.15045
0.42897 0.05487 -0.15274
0.42684 0.05498 -0.15479
0.42475 0.05559 -0.15683
0.42269 0.05646 -0.15884
0.42074 0.05713 -0.16099
0.41883 0.05727 -0.16319
0.41693 0.05694 -0.16541
0.41535 0.05665 -0.16793
0.4136 0.05685 -0.17036
0.41162 0.0573 -0.17253
0.40957 0.0575 -0.17464
0.40732 0.05764 -0.17659
0.40518 0.05758 -0.17863
0.40352 0.05673 -0.18094
0.40195 0.05526 -0.183
0.4005 0.05398 -0.18522
0.39881 0.05264 -0.18725
0.39727 0.0509 -0.18907
0.39642 0.04936 -0.19142
0.39488 0.04884 -0.19391
0.3934 0.0486 -0.19641
0.47088 0.05469 -0.08806
0.47 0.05268 -0.08973
0.46954 0.05542 -0.09062
0.46803 0.05636 -0.09304
0.46594 0.05682 -0.09513
0.46418 0.05672 -0.09755
0.46249 0.05695 -0.1
0.46096 0.05777 -0.10232
0.45935 0.05854 -0.10461
0.45805 0.05883 -0.10726
0.45716 0.05909 -0.1101
0.45616 0.05965 -0.11286
0.45471 0.06018 -0.1154
0.45315 0.06002 -0.11786
0.45174 0.05898 -0.12018
0.45048 0.05768 -0.12257
0.44889 0.05659 -0.12484
0.447 0.05593 -0.12703
0.44553 0.05549 -0.12959
0.44427 0.05535 -0.13229
0.44313 0.05549 -0.13505
0.44169 0.05586 -0.13768
0.43939 0.05664 -0.13956
0.43735 0.05726 -0.14165
0.43575 0.0573 -0.14411
0.43408 0.05723 -0.14656
0.43212 0.05737 -0.1488
0.43042 0.0574 -0.1512
0.42848 0.05745 -0.15344
0.42639 0.05758 -0.15554
0.42447 0.05816 -0.15775
0.42265 0.05896 -0.15998
0.4208 0.05956 -0.16222
0.41874 0.05975 -0.16427
0.41669 0.05945 -0.16638
0.41524 0.05912 -0.16899
0.41333 0.05937 -0.17129
0.41147 0.05979 -0.17358
0.40923 0.06003 -0.17551
0.40734 0.06003 -0.17782
0.4058 0.05963 -0.18032
0.40379 0.05895 -0.18239
0.4017 0.05768 -0.18405
0.39995 0.05643 -0.18604
0.39831 0.05509 -0.18807
0.39673 0.05334 -0.18981
0.39539 0.05173 -0.19186
0.39405 0.05124 -0.19441
0.47617 0.0567 -0.07806
0.47514 0.05378 -0.0803
0.47501 0.05667 -0.0808
0.4738 0.05396 -0.08297
0.47366 0.05685 -0.08345
0.47232 0.05436 -0.0855
0.47201 0.05724 -0.08589
0.47057 0.05756 -0.08846
0.46907 0.05829 -0.09091
0.46732 0.0592 -0.09316
0.46545 0.05968 -0.09543
0.46373 0.05959 -0.09783
0.46205 0.05983 -0.10026
0.46031 0.06061 -0.10247
0.45878 0.06137 -0.10487
0.45746 0.06165 -0.10752
0.45679 0.06193 -0.11042
0.45575 0.06251 -0.11315
0.45437 0.06303 -0.11575
0.45311 0.06284 -0.11839
0.45164 0.06179 -0.1207
0.45055 0.06048 -0.1232
0.44886 0.05937 -0.12541
0.44702 0.05867 -0.12762
0.44554 0.05824 -0.13016
0.44436 0.05811 -0.1329
0.44285 0.05828 -0.13547
0.44102 0.05862 -0.13779
0.43906 0.05937 -0.13992
0.43689 0.05995 -0.1419
0.43509 0.05996 -0.14424
0.43341 0.05989 -0.14669
0.43158 0.06002 -0.14903
0.42988 0.06005 -0.15145
0.42811 0.06012 -0.15383
0.42632 0.06023 -0.1562
0.42464 0.06075 -0.15859
0.42315 0.06141 -0.16109
0.4213 0.06201 -0.16337
0.41888 0.06233 -0.16507
0.41683 0.06201 -0.16721
0.41506 0.06175 -0.16956
0.41325 0.06199 -0.17192
0.41141 0.0624 -0.17422
0.40939 0.06256 -0.1764
0.40824 0.06224 -0.17917
0.4066 0.06189 -0.18174
0.40411 0.06141 -0.18344
0.40165 0.06026 -0.18465
0.39971 0.05902 -0.18647
0.39792 0.05768 -0.1883
0.39636 0.0559 -0.19004
0.39497 0.05427 -0.19205
0.39351 0.05375 -0.19447
0.48148 0.05593 -0.06755
0.48014 0.05887 -0.07009
0.48151 0.05893 -0.06746
0.48003 0.05589 -0.07014
0.47878 0.05639 -0.07278
0.47906 0.05935 -0.07281
0.47744 0.05675 -0.07539
0.47814 0.05966 -0.07562
0.47657 0.05963 -0.07817
0.4755 0.0596 -0.08095
0.47398 0.05976 -0.08352
0.47236 0.06014 -0.08599
0.47048 0.06048 -0.08827
0.46877 0.06118 -0.09059
0.46725 0.0621 -0.09298
0.46543 0.06259 -0.09527
0.46392 0.06251 -0.09779
0.46207 0.06274 -0.10011
0.46027 0.06352 -0.10229
0.45868 0.06427 -0.10466
0.45732 0.06454 -0.10729
0.45649 0.06478 -0.11012
0.45566 0.06538 -0.11292
0.45437 0.0659 -0.11556
0.45343 0.0657 -0.11836
0.45179 0.06464 -0.12056
0.45041 0.06332 -0.12291
0.44883 0.06219 -0.12517
0.44697 0.06146 -0.12734
0.44543 0.06101 -0.12985
0.44384 0.06083 -0.13235
0.44218 0.06095 -0.1348
0.44048 0.0613 -0.13719
0.43864 0.06207 -0.1394
0.43663 0.06266 -0.14148
0.43468 0.06262 -0.14373
0.43309 0.06257 -0.14625
0.43121 0.06266 -0.14856
[...]
CELL_DATA 6725
SCALARS brightness_temperature float
LOOKUP_TABLE default
POINT_DATA 3488
CELL_DATA 6725
SCALARS emission_angle float
LOOKUP_TABLE default
POINT_DATA 3488
CELL_DATA 6725
SCALARS incidence_angle float
LOOKUP_TABLE default
POINT_DATA 3488
CELL_DATA 6725
SCALARS phase_angle float
LOOKUP_TABLE default
POINT_DATA 3488
CELL_DATA 6725
SCALARS local_solar_time float
LOOKUP_TABLE default
POINT_DATA 3488
CELL_DATA 6725
SCALARS local_solar_time_normal_vector float
LOOKUP_TABLE default
CELL_DATA 6725
SCALARS pixel_x float
LOOKUP_TABLE default
POINT_DATA 3488
CELL_DATA 6725
SCALARS pixel_y float
LOOKUP_TABLE default
POINT_DATA 3488
CELL_DATA 6725
SCALARS longitude float
LOOKUP_TABLE default
POINT_DATA 3488
CELL_DATA 6725
SCALARS latitude float
LOOKUP_TABLE default
