# vtk DataFile Version 3.0
SHAPE_sfm_50k_v20200323
ASCII
DATASET POLYDATA
POINTS 17027 float
0.31118 0.30118 0.06173
0.3101 0.3044 0.06069
0.30902 0.30317 0.06236
0.31234 0.30244 0.06014
0.31359 0.30369 0.05863
0.31129 0.30564 0.05912
0.31252 0.3069 0.05759
0.31486 0.30497 0.05717
0.31379 0.30811 0.05606
0.31597 0.30604 0.05543
0.31489 0.30921 0.05432
0.31691 0.30701 0.05352
0.31605 0.31028 0.05261
0.3181 0.3081 0.0518
0.31738 0.31145 0.05107
0.31949 0.30928 0.05035
0.31858 0.31253 0.04941
0.32068 0.31034 0.04867
0.31956 0.31367 0.04764
0.32167 0.31148 0.04691
0.32064 0.31477 0.0459
0.32268 0.31253 0.0451
0.32163 0.31578 0.04405
0.32367 0.31354 0.04327
0.32272 0.31679 0.04226
0.32468 0.31448 0.04138
0.3237 0.31776 0.04037
0.32577 0.31552 0.03959
0.32478 0.31871 0.03853
0.32697 0.31653 0.03786
0.32593 0.31969 0.03675
0.32819 0.31755 0.03616
0.32714 0.32072 0.03505
0.32945 0.31862 0.03452
0.32819 0.32184 0.03331
0.33054 0.31976 0.0328
0.32921 0.32287 0.03148
0.33163 0.32084 0.03106
0.33022 0.32386 0.02964
0.33268 0.32186 0.02925
0.33121 0.32476 0.02772
0.33383 0.32292 0.02753
0.33221 0.32576 0.02588
0.33484 0.32392 0.02569
0.33323 0.32672 0.02402
0.33568 0.32467 0.02365
0.3342 0.32759 0.02209
0.33665 0.32553 0.02171
0.33507 0.32835 0.02006
0.33758 0.32635 0.01975
0.33581 0.32925 0.01804
0.33837 0.32728 0.01776
0.33666 0.33013 0.01605
0.33929 0.32823 0.01584
0.33763 0.33112 0.01418
0.34024 0.3292 0.01395
0.33862 0.33208 0.0123
0.34118 0.33009 0.01202
0.33956 0.33306 0.0104
0.34207 0.331 0.01007
0.34059 0.334 0.00854
0.34304 0.33188 0.00815
0.34156 0.33488 0.00662
0.34405 0.33279 0.00626
0.34251 0.33577 0.00468
0.34499 0.33365 0.00431
0.34336 0.33679 0.00276
0.34576 0.33457 0.00232
0.34404 0.33754 0.00066
0.3464 0.33528 0.0002
0.34475 0.33831 -0.00142
0.34698 0.33592 -0.00196
0.34548 0.33903 -0.00351
0.34768 0.33662 -0.00407
0.34614 0.3397 -0.00565
0.34837 0.33734 -0.00617
0.34689 0.34038 -0.00775
0.34919 0.33808 -0.00823
0.34764 0.34104 -0.00986
0.3501 0.33889 -0.01021
0.34848 0.34184 -0.01188
0.35077 0.33953 -0.01236
0.34946 0.3429 -0.01372
0.35155 0.34043 -0.01436
0.3503 0.34377 -0.01573
0.35231 0.34124 -0.0164
0.35087 0.34439 -0.01792
0.35289 0.34185 -0.01858
0.35137 0.34488 -0.02014
0.3538 0.34268 -0.02056
0.35202 0.34546 -0.02232
0.3546 0.34336 -0.02266
0.35298 0.34632 -0.02427
0.35554 0.34418 -0.02462
0.35401 0.34732 -0.02612
0.3564 0.34504 -0.02657
0.35485 0.34817 -0.02818
0.35693 0.34562 -0.02871
0.35483 0.34841 -0.03055
0.35702 0.34597 -0.031
0.35467 0.3484 -0.03288
0.35718 0.34632 -0.03329
0.35468 0.34857 -0.0352
0.35721 0.34651 -0.0356
0.35459 0.34859 -0.03753
0.35716 0.34658 -0.03793
0.35456 0.3487 -0.03986
0.35719 0.34678 -0.04025
0.35462 0.3488 -0.04219
0.35725 0.3469 -0.04259
0.35443 0.34863 -0.04449
0.35697 0.34661 -0.04489
0.35419 0.34847 -0.0468
0.35664 0.34634 -0.04719
0.35392 0.34841 -0.04912
0.35639 0.34633 -0.0495
0.35354 0.34818 -0.05141
0.35611 0.34626 -0.05182
0.35293 0.34765 -0.0536
0.35545 0.34568 -0.05399
0.3524 0.34721 -0.05582
0.35496 0.3453 -0.05624
0.35186 0.34682 -0.05807
0.35423 0.34466 -0.05835
0.35102 0.34592 -0.06007
0.35356 0.34403 -0.06049
0.3504 0.34533 -0.06224
0.35293 0.34342 -0.06265
0.3497 0.34469 -0.06436
0.35225 0.34284 -0.0648
0.34893 0.34417 -0.0665
0.35146 0.34231 -0.06692
0.3481 0.34347 -0.06856
0.35069 0.34174 -0.06904
0.34728 0.34281 -0.07064
0.3499 0.34116 -0.07115
0.34648 0.34213 -0.07272
0.3492 0.34067 -0.07332
0.3458 0.34167 -0.07491
0.34845 0.34009 -0.07544
0.34509 0.34109 -0.07705
0.34767 0.33938 -0.07752
0.3444 0.34049 -0.07919
0.34691 0.33867 -0.0796
0.34353 0.33969 -0.0812
0.34604 0.33788 -0.0816
0.34245 0.3387 -0.08301
0.34508 0.33716 -0.08359
0.34143 0.33773 -0.08487
0.34414 0.33644 -0.0856
0.34046 0.33693 -0.08684
0.34323 0.33576 -0.08764
0.33961 0.33641 -0.08896
0.34212 0.33466 -0.08939
0.33864 0.33557 -0.09094
0.34107 0.33368 -0.09122
0.33756 0.33436 -0.09263
0.34003 0.33259 -0.09299
0.33649 0.3331 -0.09427
0.33894 0.33133 -0.09464
0.33546 0.33209 -0.0961
0.33802 0.33058 -0.09668
0.33441 0.33132 -0.09803
0.3371 0.33014 -0.09882
0.3333 0.33025 -0.09981
0.33591 0.32886 -0.1004
0.33213 0.329 -0.10139
0.33474 0.32764 -0.10199
0.33105 0.32793 -0.10315
0.33368 0.32666 -0.10382
0.32999 0.32688 -0.10495
0.33261 0.32561 -0.1056
0.32896 0.32576 -0.10671
0.3316 0.32459 -0.10744
0.328 0.32484 -0.10863
0.33073 0.324 -0.10952
0.32713 0.32431 -0.11073
0.32987 0.32341 -0.11162
0.32618 0.32355 -0.11273
0.32887 0.3225 -0.11353
0.32526 0.32274 -0.11473
0.32791 0.3216 -0.11546
0.32429 0.32164 -0.11654
0.32695 0.32062 -0.11733
0.32343 0.32089 -0.11855
0.32609 0.31998 -0.11939
0.3226 0.32023 -0.12063
0.32522 0.31914 -0.12139
0.32173 0.31915 -0.12253
0.32436 0.3181 -0.1233
0.3209 0.31817 -0.12448
0.32354 0.31725 -0.1253
0.32019 0.31771 -0.12666
0.32278 0.31659 -0.1274
0.31949 0.31718 -0.12883
0.32207 0.31604 -0.12956
0.31885 0.31657 -0.13099
0.32131 0.31507 -0.13154
0.31825 0.31579 -0.13309
0.32064 0.31421 -0.13361
0.31775 0.31509 -0.13527
0.31992 0.31322 -0.13557
0.31706 0.31421 -0.13735
0.31921 0.31238 -0.13759
0.31617 0.31312 -0.13923
0.31854 0.31167 -0.13971
0.31537 0.31218 -0.14118
0.31786 0.31101 -0.14183
0.31479 0.31179 -0.14342
0.31721 0.31048 -0.14398
0.31407 0.31126 -0.14555
0.31655 0.31006 -0.14618
0.31349 0.31097 -0.14776
0.31589 0.30955 -0.14834
0.31295 0.3107 -0.14996
0.31523 0.309 -0.15047
0.31252 0.31057 -0.15226
0.31479 0.30887 -0.15282
0.31193 0.31003 -0.15458
0.31402 0.30811 -0.15493
0.3113 0.30939 -0.1567
0.31341 0.30758 -0.1571
0.31065 0.3088 -0.15885
0.31269 0.30688 -0.1592
0.30987 0.30813 -0.16093
0.31203 0.30641 -0.16135
0.3092 0.30775 -0.16312
0.31135 0.30602 -0.16356
0.30853 0.30735 -0.16533
0.31053 0.30542 -0.16569
0.30776 0.3068 -0.16755
0.3096 0.30467 -0.16772
0.30663 0.30581 -0.16951
0.30857 0.30374 -0.16963
0.30532 0.30444 -0.17092
0.30756 0.30283 -0.17152
0.30421 0.30323 -0.17255
0.30655 0.30183 -0.1734
0.30318 0.30211 -0.1743
0.3055 0.30066 -0.17514
0.30211 0.30106 -0.17607
0.30439 0.29949 -0.1768
0.30095 0.30011 -0.17789
0.30319 0.29839 -0.17849
0.29971 0.29893 -0.17954
0.30191 0.29714 -0.18003
0.2984 0.2976 -0.18095
0.30057 0.29581 -0.18142
0.29713 0.29627 -0.18239
0.29922 0.29439 -0.18268
0.29581 0.2949 -0.18376
0.29788 0.29304 -0.18399
0.2945 0.29351 -0.18509
0.29669 0.29186 -0.1856
0.29326 0.2922 -0.18655
0.29542 0.2905 -0.18701
0.29203 0.29099 -0.18809
0.29422 0.28937 -0.18862
0.29075 0.28989 -0.1897
0.29297 0.28842 -0.19035
0.28945 0.28861 -0.1912
0.29166 0.28723 -0.19192
0.28811 0.28712 -0.19241
0.29031 0.28579 -0.19317
0.28681 0.28568 -0.19369
0.28899 0.28437 -0.19446
0.28549 0.28426 -0.19499
0.28767 0.28302 -0.19584
0.28424 0.28286 -0.19636
0.28638 0.28149 -0.19703
0.28301 0.2815 -0.19779
0.28511 0.28005 -0.19832
0.28183 0.28027 -0.19933
0.28387 0.27874 -0.19976
0.28064 0.27927 -0.20109
0.28265 0.27766 -0.20139
0.27935 0.27795 -0.20254
0.28146 0.27668 -0.20317
0.27809 0.27668 -0.20404
0.28017 0.2754 -0.20465
0.27683 0.27537 -0.20549
0.27889 0.27406 -0.20605
0.27562 0.2742 -0.20709
0.27765 0.27284 -0.20758
0.2745 0.27311 -0.20882
0.2765 0.27174 -0.20927
0.27336 0.27197 -0.2105
0.27538 0.27071 -0.21105
0.2722 0.27077 -0.21214
0.2742 0.26948 -0.21264
0.27103 0.2696 -0.21376
0.27298 0.26822 -0.21416
0.26991 0.26849 -0.21546
0.27187 0.26718 -0.21592
0.26889 0.26758 -0.21734
0.27073 0.26606 -0.2176
0.26794 0.26672 -0.21927
0.26971 0.26513 -0.21946
0.26877 0.26436 -0.22147
0.26708 0.26599 -0.2214
0.26583 0.26458 -0.2229
0.26765 0.26316 -0.22316
0.26462 0.26309 -0.22422
0.26652 0.26184 -0.22469
0.26362 0.26195 -0.22593
0.26563 0.26099 -0.22663
0.26282 0.26131 -0.22801
0.26483 0.26037 -0.22879
0.26192 0.2604 -0.23004
0.26381 0.25912 -0.23053
0.26088 0.25906 -0.23164
0.30799 0.30647 0.06135
0.30911 0.30769 0.05969
0.31024 0.30889 0.05802
0.31153 0.31014 0.05653
0.31269 0.3113 0.05487
0.31382 0.31236 0.05312
0.31505 0.31349 0.05147
0.31633 0.31465 0.0499
0.31737 0.31584 0.04818
0.31832 0.31684 0.04629
0.31931 0.31785 0.04442
0.32047 0.31892 0.04269
0.32158 0.32 0.04094
0.32274 0.32102 0.03918
0.32394 0.32205 0.03747
0.32501 0.32302 0.03565
0.32593 0.32407 0.03378
0.32691 0.32505 0.03191
0.32785 0.326 0.02999
0.32887 0.32693 0.02811
0.32977 0.32785 0.02616
0.33057 0.32855 0.02408
0.33143 0.32926 0.02202
0.33235 0.33011 0.02004
0.33318 0.33114 0.0181
0.33413 0.33217 0.01623
0.33513 0.3332 0.01439
0.33615 0.3342 0.01253
0.33709 0.33518 0.01063
0.33806 0.33608 0.00871
0.339 0.33694 0.00675
0.33998 0.33787 0.00484
0.3408 0.33887 0.00289
0.34162 0.33978 0.0009
0.34235 0.34057 -0.00117
0.34311 0.34132 -0.00325
0.34382 0.34204 -0.00536
0.3446 0.34274 -0.00745
0.34545 0.34348 -0.0095
0.34635 0.34433 -0.01149
0.34718 0.34527 -0.01346
0.34794 0.34608 -0.01551
0.34869 0.34686 -0.01759
0.34926 0.34741 -0.0198
0.34973 0.34784 -0.02205
0.35052 0.34852 -0.02414
0.35154 0.34953 -0.026
0.35261 0.35066 -0.02789
0.35282 0.35105 -0.03035
0.35243 0.35082 -0.03272
0.35235 0.35088 -0.03506
0.35245 0.35109 -0.03739
0.35263 0.35136 -0.0397
0.35282 0.35152 -0.04203
0.35241 0.3512 -0.04432
0.35212 0.35098 -0.04663
0.35169 0.35076 -0.04892
0.35108 0.35028 -0.05112
0.35035 0.34958 -0.05323
0.34972 0.34896 -0.0554
0.34908 0.3484 -0.05757
0.34838 0.3477 -0.0597
0.34787 0.34726 -0.06195
0.34709 0.3465 -0.06402
0.34632 0.34594 -0.06615
0.34543 0.34514 -0.06815
0.34456 0.34436 -0.07018
0.34373 0.34361 -0.07224
0.34299 0.343 -0.07438
0.34226 0.34233 -0.07649
0.34154 0.34163 -0.07859
0.34065 0.34074 -0.08055
0.3396 0.33979 -0.08241
0.33859 0.33888 -0.08432
0.33762 0.33803 -0.08627
0.33677 0.33752 -0.0884
0.33582 0.33675 -0.09042
0.33474 0.33544 -0.09206
0.33374 0.33437 -0.09388
0.33269 0.33325 -0.09564
0.33155 0.33206 -0.09731
0.33048 0.33114 -0.09917
0.32936 0.33008 -0.10093
0.32827 0.32899 -0.10269
0.32719 0.32781 -0.10439
0.32622 0.32693 -0.10634
0.32525 0.32596 -0.10822
0.32432 0.32512 -0.11017
0.32337 0.3244 -0.11218
0.32246 0.32363 -0.1142
0.32155 0.32271 -0.11615
0.32065 0.3218 -0.11811
0.31973 0.32068 -0.11997
0.31893 0.31988 -0.12201
0.31813 0.31905 -0.12404
[...]
CELL_DATA 32882
SCALARS brightness_temperature float
LOOKUP_TABLE default
POINT_DATA 17027
CELL_DATA 32882
SCALARS emission_angle float
LOOKUP_TABLE default
POINT_DATA 17027
CELL_DATA 32882
SCALARS incidence_angle float
LOOKUP_TABLE default
POINT_DATA 17027
CELL_DATA 32882
SCALARS phase_angle float
LOOKUP_TABLE default
POINT_DATA 17027
CELL_DATA 32882
SCALARS local_solar_time float
LOOKUP_TABLE default
POINT_DATA 17027
CELL_DATA 32882
SCALARS local_solar_time_normal_vector float
LOOKUP_TABLE default
CELL_DATA 32882
SCALARS pixel_x float
LOOKUP_TABLE default
POINT_DATA 17027
CELL_DATA 32882
SCALARS pixel_y float
LOOKUP_TABLE default
POINT_DATA 17027
CELL_DATA 32882
SCALARS longitude float
LOOKUP_TABLE default
POINT_DATA 17027
CELL_DATA 32882
SCALARS latitude float
LOOKUP_TABLE default
