# vtk DataFile Version 3.0
SHAPE_sfm_50k_v20200323
ASCII
DATASET POLYDATA
POINTS 23536 float
0.23621 -0.31353 -0.18187
0.23296 -0.3125 -0.18385
0.23558 -0.31192 -0.18395
0.23674 -0.31527 -0.17983
0.23889 -0.31325 -0.18174
0.23829 -0.31161 -0.18381
0.24018 -0.31656 -0.1776
0.24209 -0.31455 -0.17967
0.24287 -0.3163 -0.17773
0.23941 -0.31493 -0.17967
0.24158 -0.31285 -0.18179
0.24098 -0.31184 -0.18428
0.24653 -0.31717 -0.17627
0.24541 -0.31564 -0.17822
0.24465 -0.3138 -0.18015
0.24419 -0.31278 -0.18271
0.25012 -0.31779 -0.17485
0.24902 -0.31629 -0.17681
0.24786 -0.3146 -0.17864
0.24719 -0.31351 -0.18113
0.25344 -0.31846 -0.17288
0.25262 -0.31676 -0.17481
0.25152 -0.3153 -0.17681
0.25044 -0.31386 -0.17891
0.24983 -0.31345 -0.18161
0.24932 -0.31351 -0.18434
0.25456 -0.3201 -0.17105
0.25603 -0.31764 -0.17267
0.25719 -0.31934 -0.17092
0.2552 -0.31594 -0.17459
0.25411 -0.31453 -0.17665
0.2531 -0.31342 -0.17894
0.25247 -0.313 -0.18158
0.25502 -0.30835 0.20543
0.25318 -0.31061 0.20314
0.25556 -0.30948 0.20303
0.254 -0.31225 0.20112
0.25632 -0.311 0.20093
0.25877 -0.32194 -0.16647
0.26038 -0.31925 -0.16816
0.26124 -0.32076 -0.16609
0.25805 -0.32058 -0.16869
0.25951 -0.31801 -0.17037
0.25858 -0.31676 -0.17254
0.25776 -0.31511 -0.17451
0.25671 -0.31383 -0.17665
0.25573 -0.31292 -0.17899
0.25511 -0.31238 -0.1816
0.25738 -0.30718 0.20533
0.258 -0.30848 0.20305
0.25861 -0.30969 0.20075
0.25913 -0.31101 0.19847
0.25703 -0.31259 0.19887
0.25786 -0.31412 0.19683
0.25989 -0.31245 0.19635
0.26306 -0.3235 -0.16186
0.26444 -0.32071 -0.1637
0.26541 -0.32205 -0.16161
0.26215 -0.32222 -0.16403
0.26358 -0.31934 -0.16583
0.26274 -0.31787 -0.16791
0.26185 -0.31661 -0.17009
0.26092 -0.31541 -0.17226
0.26006 -0.31379 -0.17421
0.25908 -0.31267 -0.17646
0.2583 -0.31212 -0.17899
0.25738 -0.31093 -0.18121
0.25995 -0.30683 0.20243
0.26064 -0.30808 0.20021
0.26124 -0.30946 0.19802
0.2619 -0.31077 0.19579
0.26089 -0.31402 0.19441
0.2628 -0.31224 0.19373
0.262 -0.31565 0.19261
0.2639 -0.31383 0.1919
0.26838 -0.32556 -0.15506
0.26984 -0.32295 -0.15717
0.27082 -0.3242 -0.15504
0.26746 -0.32439 -0.15728
0.26883 -0.32181 -0.15935
0.26652 -0.32336 -0.15956
0.26775 -0.32056 -0.16142
0.26673 -0.31917 -0.16344
0.26588 -0.31785 -0.1656
0.26518 -0.31657 -0.16784
0.2644 -0.31554 -0.17013
0.26328 -0.31407 -0.17199
0.2623 -0.31232 -0.17375
0.26129 -0.3112 -0.17601
0.26023 -0.31033 -0.17828
0.25924 -0.30914 -0.18042
0.25823 -0.30782 -0.18249
0.26122 -0.30389 0.2039
0.26204 -0.30535 0.20185
0.26271 -0.30655 0.1996
0.26328 -0.30785 0.19738
0.26396 -0.30915 0.19516
0.26483 -0.31059 0.19307
0.26596 -0.31219 0.19127
0.26492 -0.31546 0.19009
0.26695 -0.31376 0.1894
0.26576 -0.31681 0.18797
0.26775 -0.31505 0.18726
0.27271 -0.32704 -0.15097
0.2742 -0.32414 -0.15285
0.27497 -0.32536 -0.15064
0.27184 -0.32566 -0.15307
0.27323 -0.32278 -0.15489
0.27224 -0.32152 -0.157
0.2712 -0.32037 -0.15913
0.27012 -0.31914 -0.16121
0.26909 -0.31776 -0.16322
0.26825 -0.31645 -0.16538
0.26773 -0.31554 -0.16783
0.26699 -0.31461 -0.1702
0.26575 -0.31294 -0.17188
0.26469 -0.311 -0.17341
0.26359 -0.3098 -0.17556
0.26237 -0.30876 -0.17765
0.26142 -0.30763 -0.17986
0.26041 -0.30635 -0.18195
0.26481 -0.30492 0.19942
0.26405 -0.30362 0.20158
0.26553 -0.3064 0.19736
0.26612 -0.30755 0.19505
0.26693 -0.30887 0.1929
0.26795 -0.31036 0.19095
0.26893 -0.31192 0.18907
0.26976 -0.31318 0.18693
0.26843 -0.31622 0.18498
0.27062 -0.31444 0.18479
0.27138 -0.31572 0.18263
0.26928 -0.31763 0.18289
0.27201 -0.31714 0.18046
0.27664 -0.32739 -0.14607
0.27838 -0.32532 -0.14822
0.27926 -0.32626 -0.14591
0.27577 -0.32645 -0.14839
0.27755 -0.3242 -0.15045
0.27676 -0.32299 -0.15265
0.27582 -0.3217 -0.15475
0.27471 -0.32027 -0.15666
0.27359 -0.31901 -0.15868
0.27243 -0.31771 -0.16066
0.27148 -0.31645 -0.16277
0.27075 -0.31534 -0.16505
0.27026 -0.31445 -0.16751
0.26912 -0.31304 -0.16947
0.26805 -0.3116 -0.1714
0.26726 -0.31004 -0.17336
0.26605 -0.30866 -0.17523
0.2647 -0.30746 -0.17716
0.26359 -0.30619 -0.1792
0.2626 -0.30493 -0.18131
0.26707 -0.30352 0.19968
0.26634 -0.30231 0.20189
0.2676 -0.30471 0.19739
0.26824 -0.30591 0.19514
0.26902 -0.30716 0.19295
0.26995 -0.30851 0.19088
0.27081 -0.30994 0.18885
0.27182 -0.31135 0.18687
0.27299 -0.31295 0.18511
0.27363 -0.31404 0.18278
0.2743 -0.31544 0.18065
0.27506 -0.31688 0.17857
0.27289 -0.31873 0.17853
0.276 -0.31849 0.17672
0.28265 -0.32962 -0.13966
0.28439 -0.32736 -0.14182
0.2853 -0.32851 -0.13965
0.28171 -0.32833 -0.14174
0.28307 -0.32634 -0.14383
0.28039 -0.32728 -0.14375
0.28197 -0.32542 -0.14604
0.28102 -0.32431 -0.14822
0.28013 -0.32306 -0.15036
0.2792 -0.32165 -0.15238
0.27825 -0.32034 -0.15444
0.27718 -0.319 -0.15644
0.27594 -0.31758 -0.15827
0.27472 -0.31624 -0.16017
0.27372 -0.31493 -0.16223
0.27288 -0.31373 -0.16441
0.27207 -0.31254 -0.16661
0.27119 -0.3114 -0.16881
0.27033 -0.31018 -0.17099
0.26986 -0.30924 -0.1734
0.26858 -0.30773 -0.17507
0.26704 -0.30625 -0.1766
0.26578 -0.30482 -0.17849
0.26485 -0.30361 -0.18067
0.26395 -0.30233 -0.1828
0.26942 -0.30229 0.1998
0.26858 -0.301 0.20193
0.26984 -0.30327 0.1974
0.27045 -0.30438 0.19509
0.27125 -0.30565 0.19294
0.27211 -0.30687 0.19077
0.2729 -0.30818 0.18864
0.27393 -0.30961 0.18668
0.27495 -0.31101 0.18472
0.27587 -0.31238 0.18269
0.27659 -0.31381 0.18061
0.27724 -0.31508 0.17838
0.27813 -0.31658 0.17642
0.27901 -0.31803 0.17442
0.27677 -0.31986 0.17461
0.27979 -0.31975 0.17259
0.28898 -0.32978 -0.13564
0.28588 -0.33002 -0.13758
0.28835 -0.32859 -0.1379
0.28794 -0.32757 -0.14027
0.287 -0.32635 -0.14239
0.28562 -0.32515 -0.14425
0.28441 -0.32398 -0.14625
0.28335 -0.32271 -0.14829
0.28242 -0.32143 -0.15038
0.28148 -0.32002 -0.15238
0.28039 -0.31854 -0.15425
0.27937 -0.31728 -0.15631
0.2782 -0.31596 -0.15826
0.2769 -0.31452 -0.16002
0.27581 -0.31314 -0.16198
0.27487 -0.31187 -0.16407
0.27394 -0.31058 -0.16616
0.27324 -0.30963 -0.16852
0.27275 -0.3089 -0.171
0.27234 -0.30803 -0.1735
0.27092 -0.3064 -0.17511
0.26928 -0.30479 -0.17641
0.26792 -0.30321 -0.17809
0.26689 -0.30191 -0.1802
0.26618 -0.30086 -0.18252
0.27049 -0.29931 0.20144
0.27137 -0.30057 0.19932
0.27207 -0.30184 0.19714
0.27264 -0.30288 0.1948
0.27338 -0.30405 0.19256
0.27437 -0.30539 0.19053
0.27522 -0.30674 0.18845
0.27608 -0.30793 0.18628
0.27705 -0.30926 0.18424
0.278 -0.31064 0.18223
0.27873 -0.31206 0.18016
0.27962 -0.31356 0.17819
0.28064 -0.3152 0.17641
0.28159 -0.31672 0.17452
0.28221 -0.31817 0.17244
0.28282 -0.31944 0.17023
0.28047 -0.32115 0.17049
0.28141 -0.32247 0.16843
0.28352 -0.32051 0.16795
0.29198 -0.33306 -0.12918
0.29284 -0.32973 -0.13095
0.2939 -0.33085 -0.12881
0.29112 -0.33207 -0.13144
0.29194 -0.32882 -0.13325
0.29005 -0.33101 -0.13357
0.29116 -0.3279 -0.13561
0.29086 -0.32723 -0.13816
0.29079 -0.32707 -0.14093
0.28972 -0.32553 -0.14292
0.28816 -0.32387 -0.14426
0.28677 -0.32243 -0.14596
0.28568 -0.32114 -0.14797
0.28466 -0.31976 -0.14995
0.28376 -0.31842 -0.15201
0.2828 -0.31712 -0.15407
0.28171 -0.31577 -0.15602
0.28051 -0.31444 -0.15792
0.27934 -0.31319 -0.15991
0.27815 -0.31168 -0.16169
0.27706 -0.31026 -0.16361
0.27614 -0.30898 -0.16571
0.27531 -0.30792 -0.16797
0.27462 -0.30703 -0.17033
0.27426 -0.30616 -0.17284
0.27287 -0.30463 -0.17453
0.27134 -0.3031 -0.17602
0.27014 -0.30169 -0.17793
0.26915 -0.30045 -0.18005
0.26837 -0.29934 -0.18231
0.27313 -0.29864 0.19898
0.27231 -0.29745 0.20118
0.27387 -0.29992 0.19683
0.27464 -0.30114 0.19465
0.27543 -0.30231 0.19245
0.27633 -0.30354 0.19031
0.27721 -0.30487 0.18823
0.27821 -0.30617 0.18619
0.27921 -0.30749 0.18418
0.2801 -0.30876 0.18208
0.28079 -0.31012 0.17995
0.28158 -0.31153 0.17784
0.28272 -0.31328 0.17622
0.28376 -0.31487 0.17444
0.28438 -0.31627 0.17235
0.28492 -0.31743 0.17007
0.28556 -0.3184 0.16773
0.28441 -0.3214 0.16565
0.28646 -0.31926 0.16542
0.28541 -0.32244 0.16347
0.28748 -0.32034 0.16325
0.28633 -0.32345 0.16124
0.28842 -0.32138 0.16105
0.28713 -0.32444 0.15895
0.28927 -0.32243 0.15882
0.29812 -0.33142 -0.12454
0.29495 -0.33212 -0.12678
0.29728 -0.33033 -0.12674
0.29627 -0.32909 -0.12878
0.29513 -0.32787 -0.13083
0.2942 -0.32699 -0.13315
0.29348 -0.32622 -0.13558
0.29338 -0.32587 -0.13822
0.29333 -0.32552 -0.14091
0.29227 -0.32414 -0.14305
0.29062 -0.32247 -0.14433
0.28915 -0.32093 -0.14585
0.28796 -0.31952 -0.14771
0.28693 -0.31813 -0.14969
0.28608 -0.31684 -0.15181
0.28531 -0.31589 -0.15413
0.28424 -0.31461 -0.15613
0.28289 -0.313 -0.15769
0.28161 -0.31163 -0.15953
0.28049 -0.31026 -0.16146
0.27935 -0.30879 -0.1633
0.27843 -0.30753 -0.16541
0.27754 -0.30641 -0.1676
0.27667 -0.30533 -0.16982
0.27584 -0.30411 -0.17196
0.27474 -0.30278 -0.17389
0.27345 -0.30144 -0.17572
0.27236 -0.30019 -0.17778
0.27137 -0.29897 -0.17989
0.27051 -0.29778 -0.18206
0.27426 -0.29574 0.20071
0.27496 -0.2968 0.19841
0.27572 -0.2981 0.19628
0.27654 -0.29935 0.19412
0.27748 -0.30062 0.19204
0.27851 -0.30193 0.19003
0.27949 -0.30336 0.18808
0.28058 -0.30475 0.18616
0.28166 -0.30615 0.18425
0.28249 -0.30725 0.18205
0.28312 -0.30848 0.17982
0.28396 -0.30991 0.17778
0.28488 -0.31143 0.17587
0.28582 -0.31292 0.17395
0.28653 -0.31439 0.17195
0.28713 -0.31556 0.16972
0.28779 -0.31652 0.16739
0.2887 -0.31738 0.16508
0.28977 -0.31849 0.16297
0.29067 -0.3195 0.16076
0.29152 -0.32055 0.15853
0.29016 -0.32332 0.15652
0.29251 -0.32154 0.15632
0.29118 -0.32422 0.15429
0.29355 -0.32247 0.15412
0.29223 -0.32503 0.15204
0.29459 -0.32328 0.15186
0.29335 -0.32581 0.14979
0.29586 -0.32429 0.14981
0.29454 -0.32671 0.14764
0.29709 -0.32528 0.14773
0.30365 -0.3334 -0.11508
0.3006 -0.3339 -0.11755
0.30297 -0.33217 -0.11728
0.302 -0.33135 -0.11955
0.29958 -0.333 -0.11979
0.3011 -0.33059 -0.12188
0.29874 -0.33231 -0.12217
0.30055 -0.3298 -0.1243
0.29997 -0.32912 -0.12677
0.29893 -0.32787 -0.12882
0.29765 -0.32645 -0.13062
0.29665 -0.32549 -0.13286
0.29582 -0.32461 -0.13518
0.29529 -0.32382 -0.13762
0.29515 -0.32332 -0.14021
0.29447 -0.32229 -0.14261
0.29294 -0.32083 -0.14424
0.29147 -0.31933 -0.14578
0.29036 -0.31802 -0.14774
0.28942 -0.31679 -0.14984
0.2887 -0.31583 -0.15216
0.28794 -0.31498 -0.15452
[...]
CELL_DATA 45766
SCALARS brightness_temperature float
LOOKUP_TABLE default
POINT_DATA 23536
CELL_DATA 45766
SCALARS emission_angle float
LOOKUP_TABLE default
POINT_DATA 23536
CELL_DATA 45766
SCALARS incidence_angle float
LOOKUP_TABLE default
POINT_DATA 23536
CELL_DATA 45766
SCALARS phase_angle float
LOOKUP_TABLE default
POINT_DATA 23536
CELL_DATA 45766
SCALARS local_solar_time float
LOOKUP_TABLE default
POINT_DATA 23536
CELL_DATA 45766
SCALARS local_solar_time_normal_vector float
LOOKUP_TABLE default
CELL_DATA 45766
SCALARS pixel_x float
LOOKUP_TABLE default
POINT_DATA 23536
CELL_DATA 45766
SCALARS pixel_y float
LOOKUP_TABLE default
POINT_DATA 23536
CELL_DATA 45766
SCALARS longitude float
LOOKUP_TABLE default
POINT_DATA 23536
CELL_DATA 45766
SCALARS latitude float
LOOKUP_TABLE default
