# vtk DataFile Version 3.0
SHAPE_sfm_50k_v20200323
ASCII
DATASET POLYDATA
POINTS 601 float
-0.30182 -0.27531 0.17821
-0.30309 -0.27649 0.17638
-0.3012 -0.27824 0.17726
-0.30269 -0.27967 0.17585
-0.30452 -0.2779 0.17488
-0.30409 -0.28097 0.17425
-0.306 -0.2792 0.17335
-0.3054 -0.28219 0.1725
-0.30743 -0.28047 0.17176
-0.30674 -0.28338 0.17076
-0.30892 -0.28172 0.1702
-0.30797 -0.28479 0.16911
-0.31015 -0.28311 0.16853
-0.30923 -0.28608 0.16738
-0.31141 -0.28438 0.16679
-0.3104 -0.28729 0.16553
-0.31262 -0.28559 0.16499
-0.31156 -0.28836 0.16359
-0.31389 -0.28674 0.16317
-0.31276 -0.28961 0.16179
-0.31491 -0.28779 0.16115
-0.3139 -0.29066 0.15984
-0.31598 -0.28876 0.15913
-0.3149 -0.29156 0.15773
-0.31704 -0.28967 0.15705
-0.31608 -0.29257 0.15576
-0.31828 -0.29072 0.15514
-0.31724 -0.29385 0.15394
-0.31939 -0.29194 0.15327
-0.31818 -0.29478 0.15182
-0.32042 -0.29294 0.15123
-0.31923 -0.29577 0.14978
-0.32158 -0.29404 0.1493
-0.32032 -0.29673 0.14773
-0.3228 -0.29516 0.14744
-0.32148 -0.29784 0.14579
-0.3239 -0.29622 0.14546
-0.32293 -0.29919 0.14423
-0.32519 -0.29742 0.14366
-0.32454 -0.3006 0.14292
-0.32657 -0.29867 0.14199
-0.32594 -0.30181 0.14122
-0.328 -0.29991 0.14037
-0.32698 -0.30293 0.13923
-0.32909 -0.30107 0.13847
-0.3278 -0.30374 0.13699
-0.33009 -0.30205 0.13642
-0.32872 -0.30467 0.13486
-0.33092 -0.30286 0.13421
-0.32969 -0.30554 0.13274
-0.33188 -0.30371 0.13206
-0.33059 -0.30637 0.13054
-0.33295 -0.3047 0.13003
-0.30048 -0.28113 0.17647
-0.30195 -0.28253 0.17499
-0.30319 -0.28372 0.17315
-0.30455 -0.28496 0.17145
-0.3058 -0.28642 0.16985
-0.30702 -0.28771 0.16809
-0.30813 -0.28889 0.16619
-0.30934 -0.29006 0.16433
-0.31051 -0.29129 0.16249
-0.31156 -0.29229 0.16046
-0.31262 -0.29327 0.1584
-0.31382 -0.29431 0.15646
-0.31479 -0.2954 0.15442
-0.31586 -0.29646 0.15243
-0.31685 -0.29739 0.15033
-0.3179 -0.29833 0.14825
-0.31898 -0.29933 0.14619
-0.32034 -0.30055 0.14444
-0.32192 -0.30192 0.14303
-0.32338 -0.30322 0.14148
-0.32448 -0.30441 0.13957
-0.32549 -0.30544 0.13752
-0.32661 -0.30658 0.13558
-0.32737 -0.30725 0.13328
-0.32813 -0.30794 0.13097
-0.32925 -0.30895 0.12894
-0.29943 -0.28372 0.17512
-0.29805 -0.28239 0.17674
-0.30085 -0.28515 0.1736
-0.30239 -0.28657 0.17219
-0.30372 -0.28813 0.17073
-0.30482 -0.28933 0.1688
-0.3061 -0.29067 0.1671
-0.30748 -0.29194 0.16543
-0.30839 -0.29304 0.16338
-0.30922 -0.29389 0.16116
-0.31016 -0.29476 0.15898
-0.31136 -0.29581 0.15702
-0.31234 -0.29692 0.155
-0.31338 -0.29794 0.15295
-0.31434 -0.29883 0.15081
-0.31534 -0.2997 0.14866
-0.31644 -0.30074 0.14664
-0.31768 -0.30178 0.14468
-0.31918 -0.30298 0.14303
-0.32063 -0.30424 0.14142
-0.32181 -0.3056 0.13968
-0.32309 -0.30701 0.13803
-0.32423 -0.3082 0.13614
-0.32507 -0.30897 0.1339
-0.32585 -0.30971 0.13162
-0.32684 -0.31059 0.12946
-0.29719 -0.28523 0.17572
-0.29858 -0.28665 0.17415
-0.3 -0.28798 0.17255
-0.30125 -0.28948 0.17096
-0.30254 -0.29091 0.16932
-0.30394 -0.29237 0.16781
-0.30534 -0.29368 0.1662
-0.30627 -0.29483 0.16417
-0.30702 -0.29566 0.16191
-0.30787 -0.29649 0.15967
-0.30892 -0.29739 0.15755
-0.30987 -0.29845 0.15547
-0.31074 -0.29925 0.15325
-0.31162 -0.3 0.15098
-0.31274 -0.30105 0.14894
-0.31392 -0.30222 0.14703
-0.31511 -0.30321 0.14503
-0.31656 -0.30432 0.14325
-0.31804 -0.3056 0.14164
-0.31935 -0.30712 0.14011
-0.3206 -0.30848 0.1384
-0.32189 -0.30988 0.13672
-0.32278 -0.3107 0.13449
-0.32355 -0.31142 0.13219
-0.3245 -0.3123 0.13002
-0.32551 -0.31319 0.12788
-0.29646 -0.28831 0.17478
-0.2977 -0.28952 0.17293
-0.29879 -0.29086 0.17107
-0.30011 -0.29235 0.16948
-0.3016 -0.29394 0.16819
-0.30303 -0.2953 0.16661
-0.30405 -0.29659 0.16469
-0.30489 -0.29755 0.16251
-0.30568 -0.29835 0.16024
-0.30663 -0.29919 0.15804
-0.30754 -0.30022 0.15593
-0.30835 -0.30097 0.15366
-0.30921 -0.30173 0.15138
-0.31026 -0.3027 0.14925
-0.31149 -0.30389 0.14736
-0.31278 -0.30498 0.14547
-0.31417 -0.30601 0.14361
-0.31558 -0.30717 0.14184
-0.31686 -0.30863 0.14021
-0.31813 -0.31001 0.13854
-0.31927 -0.3112 0.13664
-0.32025 -0.31218 0.13454
-0.32117 -0.31311 0.13238
-0.32218 -0.31409 0.13027
-0.32315 -0.31497 0.12811
-0.29529 -0.29076 0.17365
-0.29422 -0.28967 0.17569
-0.29638 -0.29214 0.1718
-0.29768 -0.29365 0.17021
-0.29913 -0.2952 0.16882
-0.30054 -0.29658 0.16725
-0.30168 -0.29802 0.16552
-0.30265 -0.29914 0.16347
-0.30348 -0.30002 0.16124
-0.30438 -0.30083 0.15901
-0.30532 -0.30189 0.1569
-0.30619 -0.30271 0.15468
-0.30706 -0.3035 0.15243
-0.30802 -0.30441 0.15023
-0.30919 -0.30553 0.14825
-0.31041 -0.30655 0.14627
-0.31174 -0.30751 0.14433
-0.3131 -0.30862 0.14248
-0.31428 -0.30995 0.14068
-0.31548 -0.31124 0.13887
-0.31661 -0.31242 0.13697
-0.31763 -0.31346 0.13491
-0.31856 -0.31444 0.13276
-0.31961 -0.31549 0.1307
-0.32063 -0.31645 0.1286
-0.32165 -0.31728 0.12642
-0.29293 -0.29204 0.17441
-0.29407 -0.29351 0.17265
-0.29542 -0.29507 0.17116
-0.29674 -0.29656 0.16958
-0.2982 -0.29802 0.16809
-0.29924 -0.2994 0.16624
-0.3004 -0.30078 0.16442
-0.30129 -0.3017 0.16221
-0.30224 -0.30257 0.16002
-0.30304 -0.30352 0.1578
-0.30404 -0.30445 0.15566
-0.30508 -0.30538 0.15353
-0.30613 -0.30636 0.15143
-0.30711 -0.30736 0.14931
-0.30818 -0.30825 0.14718
-0.30942 -0.30913 0.14512
-0.31076 -0.31021 0.14323
-0.31196 -0.31156 0.14145
-0.31308 -0.31278 0.13953
-0.31412 -0.31389 0.13752
-0.3151 -0.3149 0.13542
-0.31603 -0.31589 0.13326
-0.31708 -0.31694 0.1312
-0.31815 -0.31799 0.12914
-0.31928 -0.31897 0.12708
-0.32035 -0.32005 0.12505
-0.29164 -0.29477 0.1733
-0.29307 -0.29643 0.17196
-0.29441 -0.29798 0.17043
-0.29567 -0.29926 0.16862
-0.29659 -0.30048 0.16659
-0.29765 -0.30179 0.16467
-0.29886 -0.3032 0.16291
-0.29985 -0.30411 0.16074
-0.30062 -0.30503 0.15849
-0.30177 -0.30611 0.15648
-0.30301 -0.30721 0.15454
-0.30411 -0.30821 0.15247
-0.30507 -0.30919 0.15032
-0.30606 -0.31005 0.14813
-0.30719 -0.31083 0.14597
-0.30845 -0.31184 0.14399
-0.30956 -0.31309 0.14207
-0.31058 -0.31421 0.14004
-0.31163 -0.31535 0.13803
-0.31263 -0.31641 0.13595
-0.31354 -0.31739 0.13378
-0.31461 -0.31849 0.13173
-0.31579 -0.31967 0.12979
-0.31707 -0.32078 0.12789
-0.31819 -0.32189 0.1259
-0.29041 -0.29736 0.17227
-0.28916 -0.29592 0.174
-0.29171 -0.29888 0.17067
-0.29304 -0.30031 0.16904
-0.29395 -0.30158 0.16703
-0.29498 -0.30289 0.16509
-0.29607 -0.30413 0.16314
-0.29722 -0.30533 0.16122
-0.29818 -0.3065 0.15918
-0.29929 -0.30754 0.15712
-0.30051 -0.30861 0.15515
-0.30165 -0.30967 0.15313
-0.30269 -0.31072 0.15105
-0.30381 -0.31171 0.14898
-0.30501 -0.31254 0.14688
-0.30618 -0.31348 0.14482
-0.30723 -0.31468 0.14283
-0.30814 -0.31569 0.14067
-0.30918 -0.31683 0.13863
-0.31024 -0.31798 0.13662
-0.31119 -0.31903 0.1345
-0.31221 -0.3201 0.13239
-0.31342 -0.32131 0.13049
-0.31472 -0.32244 0.12861
-0.31581 -0.32352 0.12658
-0.31693 -0.32458 0.12454
-0.28786 -0.2985 0.17287
-0.28904 -0.29987 0.17102
-0.29041 -0.30137 0.16944
-0.29136 -0.30278 0.16754
-0.29241 -0.30415 0.16565
-0.29354 -0.3055 0.16378
-0.29469 -0.3067 0.16182
-0.29567 -0.30791 0.1598
-0.29679 -0.30896 0.15775
-0.29799 -0.31002 0.15575
-0.2991 -0.31103 0.15368
-0.30014 -0.3121 0.15158
-0.30135 -0.31317 0.14958
-0.30267 -0.31413 0.1476
-0.30391 -0.31513 0.14561
-0.30485 -0.31621 0.1435
-0.30574 -0.31722 0.14132
-0.30672 -0.31833 0.13921
-0.30781 -0.31952 0.13721
-0.30885 -0.32068 0.13518
-0.30989 -0.32179 0.13311
-0.31102 -0.32293 0.1311
-0.31225 -0.32401 0.12913
-0.31341 -0.32517 0.12717
-0.31459 -0.3263 0.1252
-0.28674 -0.30153 0.17144
-0.28798 -0.30289 0.16964
-0.28902 -0.30445 0.16787
-0.28991 -0.30565 0.16576
-0.29101 -0.30698 0.16385
-0.29221 -0.30828 0.16198
-0.29328 -0.3096 0.16006
-0.29439 -0.31064 0.15799
-0.29558 -0.31168 0.15596
-0.29672 -0.31275 0.15392
-0.29779 -0.31385 0.15184
-0.29898 -0.31489 0.14981
-0.3004 -0.31593 0.14792
-0.30171 -0.31699 0.14598
-0.30251 -0.31792 0.14372
-0.30344 -0.31901 0.14157
-0.30455 -0.32027 0.1396
-0.30553 -0.32136 0.13749
-0.30664 -0.32259 0.13551
-0.3077 -0.32373 0.13347
-0.30877 -0.32483 0.1314
-0.31007 -0.32599 0.12948
-0.31145 -0.32734 0.12776
-0.31254 -0.3284 0.12569
-0.3137 -0.32952 0.12368
-0.28556 -0.30442 0.16972
-0.2844 -0.30311 0.17163
-0.28646 -0.30583 0.16775
-0.28743 -0.30721 0.16578
-0.28863 -0.3087 0.16402
-0.28985 -0.31004 0.16218
-0.29089 -0.31133 0.16021
-0.29203 -0.31239 0.15816
-0.2932 -0.31342 0.15609
-0.29435 -0.31449 0.15403
-0.29548 -0.31565 0.15201
-0.29674 -0.31678 0.15005
-0.29804 -0.31767 0.148
-0.29933 -0.31868 0.14601
-0.30025 -0.31977 0.14385
-0.30128 -0.32095 0.14179
-0.30234 -0.32218 0.13978
-0.30332 -0.32328 0.13766
-0.3043 -0.32439 0.13552
-0.3055 -0.32568 0.13362
-0.30653 -0.32676 0.13148
-0.30798 -0.32808 0.12976
-0.30947 -0.32951 0.12818
-0.31054 -0.33054 0.12604
-0.31152 -0.33152 0.12386
-0.28321 -0.30607 0.16981
-0.28211 -0.30479 0.17179
-0.28417 -0.30761 0.16794
-0.28524 -0.30913 0.16613
-0.28637 -0.31056 0.16428
-0.28755 -0.31187 0.16239
-0.28862 -0.31318 0.16043
-0.28977 -0.31426 0.15838
-0.29089 -0.31523 0.15625
-0.29197 -0.31622 0.15409
-0.29305 -0.31734 0.15199
-0.2944 -0.31855 0.15012
-0.29579 -0.31955 0.14818
-0.29697 -0.32043 0.14604
-0.29797 -0.3216 0.14395
-0.2991 -0.32289 0.14199
-0.30017 -0.32413 0.13998
-0.30107 -0.32516 0.13778
-0.30209 -0.32634 0.13569
-0.30315 -0.32749 0.1336
-0.30429 -0.3287 0.13159
-0.30573 -0.32998 0.12982
-0.30708 -0.33128 0.12803
-0.30826 -0.33243 0.12605
-0.30932 -0.33351 0.12394
-0.31049 -0.33476 0.12197
-0.28089 -0.30771 0.17016
-0.28195 -0.30938 0.16847
-0.28303 -0.31094 0.16669
-0.28421 -0.31245 0.16491
-0.28528 -0.31366 0.16286
-0.28635 -0.31499 0.1609
-0.2874 -0.31595 0.15872
-0.28851 -0.31693 0.15657
-0.28963 -0.31801 0.15447
-0.29082 -0.31925 0.15249
-0.29204 -0.32033 0.15046
-0.29349 -0.32134 0.14855
-0.29472 -0.32227 0.14646
-0.29578 -0.32348 0.14441
-0.29689 -0.32475 0.14243
-0.29787 -0.32591 0.14032
-0.29876 -0.32697 0.13811
-0.2998 -0.32817 0.13604
-0.30085 -0.32934 0.13394
-0.30196 -0.33053 0.13189
-0.30331 -0.33172 0.12998
-0.30467 -0.33302 0.12819
-0.30595 -0.33427 0.12631
-0.30708 -0.33544 0.12428
-0.30819 -0.33664 0.12225
[...]
CELL_DATA 1102
SCALARS brightness_temperature float
LOOKUP_TABLE default
POINT_DATA 601
CELL_DATA 1102
SCALARS emission_angle float
LOOKUP_TABLE default
POINT_DATA 601
CELL_DATA 1102
SCALARS incidence_angle float
LOOKUP_TABLE default
POINT_DATA 601
CELL_DATA 1102
SCALARS phase_angle float
LOOKUP_TABLE default
POINT_DATA 601
CELL_DATA 1102
SCALARS local_solar_time float
LOOKUP_TABLE default
POINT_DATA 601
CELL_DATA 1102
SCALARS local_solar_time_normal_vector float
LOOKUP_TABLE default
CELL_DATA 1102
SCALARS pixel_x float
LOOKUP_TABLE default
POINT_DATA 601
CELL_DATA 1102
SCALARS pixel_y float
LOOKUP_TABLE default
POINT_DATA 601
CELL_DATA 1102
SCALARS longitude float
LOOKUP_TABLE default
POINT_DATA 601
CELL_DATA 1102
SCALARS latitude float
LOOKUP_TABLE default
