# vtk DataFile Version 3.0
SHAPE_sfm_50k_v20200323
ASCII
DATASET POLYDATA
POINTS 1039 float
-0.17378 -0.07454 -0.3762
-0.17172 -0.07196 -0.37648
-0.17123 -0.07416 -0.37739
-0.17435 -0.07229 -0.37549
-0.17233 -0.06974 -0.37573
-0.17498 -0.07007 -0.37482
-0.17279 -0.06742 -0.37517
-0.17544 -0.06775 -0.37432
-0.16996 -0.08109 -0.37888
-0.16802 -0.07899 -0.37984
-0.16722 -0.08128 -0.3797
-0.17067 -0.07877 -0.37879
-0.16854 -0.0766 -0.37958
-0.17104 -0.07643 -0.37823
-0.16879 -0.07429 -0.37885
-0.16923 -0.07211 -0.37784
-0.1698 -0.06993 -0.37694
-0.17022 -0.06762 -0.37629
-0.17056 -0.06529 -0.37569
-0.16449 -0.08801 -0.3793
-0.16259 -0.0859 -0.38019
-0.16178 -0.08821 -0.38031
-0.16534 -0.08572 -0.3793
-0.16345 -0.08361 -0.38021
-0.16623 -0.08346 -0.37947
-0.16444 -0.08141 -0.38038
-0.16529 -0.07915 -0.38066
-0.16593 -0.07677 -0.38076
-0.16633 -0.07439 -0.38029
-0.1668 -0.0722 -0.37928
-0.16729 -0.07006 -0.37823
-0.16768 -0.06777 -0.37748
-0.168 -0.06545 -0.3768
-0.16845 -0.06314 -0.37616
-0.16041 -0.09531 -0.38123
-0.15803 -0.09316 -0.38212
-0.15779 -0.09556 -0.38253
-0.16067 -0.09291 -0.38088
-0.15843 -0.09079 -0.38171
-0.1611 -0.09054 -0.38056
-0.15907 -0.08846 -0.38135
-0.15985 -0.08613 -0.38108
-0.16067 -0.08383 -0.38096
-0.16164 -0.08159 -0.38098
-0.16248 -0.0793 -0.38121
-0.16315 -0.07695 -0.38142
-0.16367 -0.07454 -0.38131
-0.16428 -0.07226 -0.38058
-0.1648 -0.07011 -0.37954
-0.16512 -0.06785 -0.37865
-0.16543 -0.06554 -0.37792
-0.16586 -0.06324 -0.37721
-0.16648 -0.06094 -0.37664
-0.15755 -0.10039 -0.38323
-0.15497 -0.09839 -0.38416
-0.15492 -0.10082 -0.38448
-0.1576 -0.09797 -0.38292
-0.15516 -0.09597 -0.38376
-0.1554 -0.09357 -0.38334
-0.15579 -0.0912 -0.38288
-0.15641 -0.08888 -0.38241
-0.15714 -0.08655 -0.38201
-0.15793 -0.08424 -0.38174
-0.15887 -0.08199 -0.38158
-0.15968 -0.07966 -0.38162
-0.16034 -0.07729 -0.38178
-0.16089 -0.07488 -0.38186
-0.16161 -0.07255 -0.38151
-0.16226 -0.0703 -0.38076
-0.16262 -0.06802 -0.37991
-0.1629 -0.06572 -0.37912
-0.16331 -0.06343 -0.37834
-0.1639 -0.06114 -0.37767
-0.15511 -0.10326 -0.38471
-0.15235 -0.1015 -0.38573
-0.15256 -0.10394 -0.38599
-0.15239 -0.09906 -0.38538
-0.15258 -0.09663 -0.38498
-0.15283 -0.09423 -0.38456
-0.15322 -0.09186 -0.38408
-0.15381 -0.08955 -0.38353
-0.1545 -0.08723 -0.383
-0.15526 -0.08491 -0.38259
-0.15616 -0.08266 -0.38227
-0.15694 -0.08033 -0.38211
-0.15758 -0.07793 -0.3821
-0.15813 -0.07552 -0.38216
-0.1589 -0.07318 -0.38205
-0.15965 -0.07087 -0.38165
-0.16012 -0.06851 -0.38108
-0.16044 -0.06618 -0.38038
-0.16085 -0.06389 -0.37958
-0.16139 -0.06163 -0.37881
-0.16199 -0.05932 -0.37823
-0.15331 -0.10878 -0.38634
-0.15025 -0.10686 -0.38732
-0.15065 -0.10928 -0.38745
-0.15291 -0.10636 -0.38621
-0.1499 -0.10443 -0.38712
-0.1497 -0.10198 -0.38689
-0.14974 -0.09954 -0.38655
-0.14993 -0.09711 -0.38614
-0.15019 -0.09469 -0.38573
-0.15059 -0.09232 -0.38524
-0.15117 -0.09001 -0.38465
-0.15184 -0.0877 -0.38404
-0.15257 -0.08539 -0.38351
-0.15344 -0.08314 -0.38308
-0.15419 -0.08081 -0.38278
-0.1548 -0.07841 -0.38258
-0.15534 -0.07599 -0.38247
-0.15612 -0.07364 -0.38236
-0.15691 -0.07132 -0.38215
-0.15745 -0.06892 -0.38187
-0.15786 -0.06654 -0.3814
-0.15832 -0.06421 -0.38073
-0.15888 -0.06193 -0.37997
-0.15944 -0.05964 -0.37931
-0.16 -0.05729 -0.37885
-0.14852 -0.1122 -0.38849
-0.14795 -0.10981 -0.38846
-0.14753 -0.10738 -0.38828
-0.14719 -0.10493 -0.3881
-0.147 -0.10247 -0.38792
-0.14705 -0.10001 -0.38762
-0.14724 -0.09758 -0.38719
-0.14749 -0.09516 -0.38674
-0.14793 -0.09278 -0.38629
-0.14853 -0.09047 -0.38575
-0.14919 -0.08816 -0.3851
-0.14989 -0.08587 -0.38446
-0.15075 -0.08362 -0.38394
-0.15148 -0.08128 -0.38355
-0.15206 -0.07888 -0.38324
-0.15257 -0.07645 -0.38297
-0.15334 -0.07409 -0.38274
-0.15415 -0.07176 -0.38255
-0.15473 -0.06935 -0.38241
-0.15519 -0.06694 -0.38217
-0.15572 -0.06457 -0.38169
-0.15632 -0.06226 -0.38104
-0.15688 -0.05997 -0.38035
-0.1574 -0.05762 -0.37979
-0.15801 -0.05525 -0.37941
-0.14918 -0.11459 -0.38844
-0.14588 -0.11305 -0.38942
-0.14655 -0.11544 -0.38938
-0.1453 -0.11064 -0.38937
-0.14487 -0.1082 -0.38918
-0.14452 -0.10574 -0.389
-0.14433 -0.10327 -0.38884
-0.14439 -0.1008 -0.38857
-0.1446 -0.09835 -0.38817
-0.14485 -0.09593 -0.38769
-0.14528 -0.09356 -0.38721
-0.14592 -0.09123 -0.38671
-0.14661 -0.0889 -0.38612
-0.14731 -0.08661 -0.38548
-0.14813 -0.08438 -0.38484
-0.14885 -0.08203 -0.38437
-0.14942 -0.07962 -0.38401
-0.14991 -0.07718 -0.38368
-0.15066 -0.07482 -0.38334
-0.15148 -0.07248 -0.38308
-0.15207 -0.07006 -0.38297
-0.15257 -0.06763 -0.38284
-0.15314 -0.06524 -0.38252
-0.15377 -0.06291 -0.38197
-0.15434 -0.0606 -0.38131
-0.15485 -0.05826 -0.38069
-0.15544 -0.05587 -0.38022
-0.15612 -0.0535 -0.3799
-0.14708 -0.11786 -0.38931
-0.14386 -0.11636 -0.39004
-0.1444 -0.1188 -0.38997
-0.1432 -0.11396 -0.39014
-0.14263 -0.11154 -0.39017
-0.14222 -0.10908 -0.39009
-0.14188 -0.10661 -0.38994
-0.14167 -0.10414 -0.38973
-0.14171 -0.10166 -0.3894
-0.14192 -0.0992 -0.38902
-0.14219 -0.09676 -0.38858
-0.14263 -0.09437 -0.38808
-0.14326 -0.09203 -0.38754
-0.14397 -0.08969 -0.38698
-0.1447 -0.08738 -0.38639
-0.14554 -0.08513 -0.38577
-0.14623 -0.08279 -0.38523
-0.14679 -0.08036 -0.38484
-0.14729 -0.07792 -0.38451
-0.14803 -0.07555 -0.38413
-0.14884 -0.0732 -0.38378
-0.14943 -0.07078 -0.3836
-0.14994 -0.06834 -0.38349
-0.15053 -0.06593 -0.38327
-0.1512 -0.06356 -0.38281
-0.15178 -0.06123 -0.38219
-0.15228 -0.05888 -0.38154
-0.15284 -0.0565 -0.38098
-0.1535 -0.05413 -0.38059
-0.15423 -0.05175 -0.38027
-0.14472 -0.12128 -0.38999
-0.14167 -0.11973 -0.39043
-0.14201 -0.12222 -0.39053
-0.14112 -0.11727 -0.39046
-0.14046 -0.11484 -0.39061
-0.13991 -0.11239 -0.3908
-0.13953 -0.10991 -0.39089
-0.13921 -0.10743 -0.39082
-0.139 -0.10494 -0.39064
-0.13903 -0.10244 -0.39031
-0.13921 -0.09998 -0.38981
-0.13949 -0.09753 -0.38938
-0.13996 -0.09514 -0.38894
-0.14059 -0.0928 -0.38838
-0.1413 -0.09045 -0.38775
-0.14203 -0.08814 -0.38714
-0.14289 -0.08584 -0.38656
-0.14359 -0.08345 -0.38605
-0.14415 -0.081 -0.38566
-0.14465 -0.07854 -0.38536
-0.14542 -0.07615 -0.38503
-0.14622 -0.07377 -0.38469
-0.14679 -0.07133 -0.38442
-0.14728 -0.06888 -0.38418
-0.14787 -0.06646 -0.38394
-0.14855 -0.06406 -0.38354
-0.14914 -0.0617 -0.38293
-0.14964 -0.05934 -0.38226
-0.15019 -0.05694 -0.3817
-0.15085 -0.05455 -0.38128
-0.15156 -0.05215 -0.38089
-0.13909 -0.12107 -0.39075
-0.13946 -0.12358 -0.39092
-0.13853 -0.11859 -0.39071
-0.13785 -0.11613 -0.39083
-0.13729 -0.11366 -0.39107
-0.13694 -0.11116 -0.39138
-0.13663 -0.10865 -0.39145
-0.13643 -0.10615 -0.39135
-0.13648 -0.10362 -0.39114
-0.13668 -0.10114 -0.3907
-0.13693 -0.0987 -0.39016
-0.13741 -0.0963 -0.38975
-0.13808 -0.09392 -0.38927
-0.13877 -0.09158 -0.3886
-0.13949 -0.08928 -0.38787
-0.14033 -0.08695 -0.38721
-0.14102 -0.08452 -0.38666
-0.14158 -0.08203 -0.38629
-0.1421 -0.07954 -0.38608
-0.1429 -0.07713 -0.38586
-0.14374 -0.0747 -0.38563
-0.1443 -0.07223 -0.38537
-0.14474 -0.06977 -0.38499
-0.1453 -0.06734 -0.38457
-0.14597 -0.06492 -0.38416
-0.14656 -0.06253 -0.3836
-0.14705 -0.06014 -0.38291
-0.1476 -0.05772 -0.38234
-0.14827 -0.05529 -0.38196
-0.14897 -0.05286 -0.38158
-0.14969 -0.05046 -0.38112
-0.13962 -0.12611 -0.39111
-0.13708 -0.12525 -0.39118
-0.13726 -0.12782 -0.39127
-0.13669 -0.12272 -0.39101
-0.1361 -0.12022 -0.39089
-0.1354 -0.11774 -0.39092
-0.13483 -0.11524 -0.39115
-0.13446 -0.11272 -0.39146
-0.13416 -0.1102 -0.39164
-0.13397 -0.10769 -0.39165
-0.13402 -0.10513 -0.39156
-0.13424 -0.1026 -0.39134
-0.13452 -0.10014 -0.39094
-0.135 -0.09773 -0.39049
-0.13567 -0.09532 -0.39006
-0.13639 -0.09293 -0.38951
-0.13711 -0.09066 -0.38872
-0.13792 -0.08836 -0.38789
-0.13859 -0.08591 -0.38719
-0.13912 -0.08339 -0.3867
-0.13964 -0.08088 -0.38648
-0.14046 -0.07845 -0.38636
-0.14131 -0.07596 -0.3863
-0.14191 -0.07345 -0.38618
-0.14236 -0.07097 -0.38585
-0.14289 -0.06855 -0.38532
-0.14352 -0.06612 -0.38477
-0.14411 -0.06369 -0.38423
-0.1446 -0.06126 -0.38357
-0.14513 -0.05884 -0.38293
-0.14578 -0.05638 -0.38251
-0.14648 -0.05391 -0.38221
-0.14721 -0.05147 -0.38179
-0.14799 -0.04913 -0.38124
-0.1349 -0.1272 -0.39135
-0.1351 -0.12979 -0.39133
-0.1345 -0.12464 -0.39123
-0.13389 -0.12213 -0.39108
-0.13317 -0.11964 -0.39101
-0.13256 -0.11711 -0.39113
-0.13218 -0.11456 -0.39141
-0.13186 -0.11202 -0.39166
-0.13166 -0.10948 -0.39178
-0.1317 -0.10691 -0.39177
-0.13191 -0.10433 -0.3917
-0.1322 -0.10181 -0.3915
-0.13267 -0.09935 -0.39112
-0.13335 -0.09693 -0.39073
-0.13407 -0.09447 -0.39026
-0.13481 -0.09213 -0.38962
-0.13564 -0.0899 -0.38873
-0.13629 -0.0875 -0.38784
-0.1368 -0.08502 -0.38714
-0.13729 -0.08247 -0.38673
-0.13811 -0.08001 -0.38657
-0.13898 -0.07752 -0.38656
-0.1396 -0.075 -0.38662
-0.14009 -0.07247 -0.38653
-0.14063 -0.07001 -0.38608
-0.14126 -0.06758 -0.38549
-0.14183 -0.06514 -0.3849
-0.14232 -0.06269 -0.38428
-0.14284 -0.06025 -0.38359
-0.14345 -0.05779 -0.38303
-0.14413 -0.0553 -0.38269
-0.14486 -0.05282 -0.38239
-0.14565 -0.05044 -0.3819
-0.14671 -0.04818 -0.38128
-0.13219 -0.12643 -0.39137
-0.13157 -0.12391 -0.39124
-0.13083 -0.12141 -0.39114
-0.13021 -0.11887 -0.39118
-0.1298 -0.11629 -0.39143
-0.12947 -0.11373 -0.3917
-0.12924 -0.11116 -0.39189
-0.12927 -0.10855 -0.39197
-0.12947 -0.10594 -0.39198
-0.12977 -0.10338 -0.3919
-0.13025 -0.10087 -0.39167
-0.13094 -0.09844 -0.39127
-0.13168 -0.09597 -0.39087
-0.13242 -0.09356 -0.39036
-0.1333 -0.0913 -0.3896
-0.13397 -0.08898 -0.38866
-0.13446 -0.08655 -0.38775
-0.13492 -0.08402 -0.38709
-0.13571 -0.08151 -0.38675
-0.13661 -0.07904 -0.38666
-0.13723 -0.0765 -0.38675
-0.13773 -0.07397 -0.38683
-0.1383 -0.07146 -0.38666
-0.13896 -0.06899 -0.38621
-0.13954 -0.06655 -0.38562
-0.14003 -0.0641 -0.38498
-0.14054 -0.06163 -0.38431
-0.14113 -0.05919 -0.38363
-0.14178 -0.0567 -0.38314
-0.1425 -0.0542 -0.38284
-0.1433 -0.05177 -0.3825
-0.14436 -0.04949 -0.38192
-0.14553 -0.04723 -0.38124
-0.12884 -0.12496 -0.39133
-0.1281 -0.12246 -0.39123
-0.12749 -0.11993 -0.39129
-0.12708 -0.11736 -0.39154
-0.12675 -0.11479 -0.39183
-0.12651 -0.11221 -0.39206
[...]
CELL_DATA 1939
SCALARS brightness_temperature float
LOOKUP_TABLE default
POINT_DATA 1039
CELL_DATA 1939
SCALARS emission_angle float
LOOKUP_TABLE default
POINT_DATA 1039
CELL_DATA 1939
SCALARS incidence_angle float
LOOKUP_TABLE default
POINT_DATA 1039
CELL_DATA 1939
SCALARS phase_angle float
LOOKUP_TABLE default
POINT_DATA 1039
CELL_DATA 1939
SCALARS local_solar_time float
LOOKUP_TABLE default
POINT_DATA 1039
CELL_DATA 1939
SCALARS local_solar_time_normal_vector float
LOOKUP_TABLE default
CELL_DATA 1939
SCALARS pixel_x float
LOOKUP_TABLE default
POINT_DATA 1039
CELL_DATA 1939
SCALARS pixel_y float
LOOKUP_TABLE default
POINT_DATA 1039
CELL_DATA 1939
SCALARS longitude float
LOOKUP_TABLE default
POINT_DATA 1039
CELL_DATA 1939
SCALARS latitude float
LOOKUP_TABLE default
