# vtk DataFile Version 3.0
SHAPE_sfm_50k_v20200323
ASCII
DATASET POLYDATA
POINTS 10756 float
0.32609 0.31998 -0.11939
0.3226 0.32023 -0.12063
0.32343 0.32089 -0.11855
0.32522 0.31914 -0.12139
0.32173 0.31915 -0.12253
0.32436 0.3181 -0.1233
0.3209 0.31817 -0.12448
0.32354 0.31725 -0.1253
0.32019 0.31771 -0.12666
0.32278 0.31659 -0.1274
0.31949 0.31718 -0.12883
0.32207 0.31604 -0.12956
0.31885 0.31657 -0.13099
0.32131 0.31507 -0.13154
0.31825 0.31579 -0.13309
0.32064 0.31421 -0.13361
0.31775 0.31509 -0.13527
0.31992 0.31322 -0.13557
0.31706 0.31421 -0.13735
0.31921 0.31238 -0.13759
0.31617 0.31312 -0.13923
0.31854 0.31167 -0.13971
0.31537 0.31218 -0.14118
0.31786 0.31101 -0.14183
0.31479 0.31179 -0.14342
0.31721 0.31048 -0.14398
0.31407 0.31126 -0.14555
0.31655 0.31006 -0.14618
0.31349 0.31097 -0.14776
0.31589 0.30955 -0.14834
0.31295 0.3107 -0.14996
0.31523 0.309 -0.15047
0.31252 0.31057 -0.15226
0.31479 0.30887 -0.15282
0.31193 0.31003 -0.15458
0.31402 0.30811 -0.15493
0.3113 0.30939 -0.1567
0.31341 0.30758 -0.1571
0.31065 0.3088 -0.15885
0.31269 0.30688 -0.1592
0.30987 0.30813 -0.16093
0.31203 0.30641 -0.16135
0.3092 0.30775 -0.16312
0.31135 0.30602 -0.16356
0.30853 0.30735 -0.16533
0.31053 0.30542 -0.16569
0.30776 0.3068 -0.16755
0.3096 0.30467 -0.16772
0.30663 0.30581 -0.16951
0.30857 0.30374 -0.16963
0.30532 0.30444 -0.17092
0.30756 0.30283 -0.17152
0.30421 0.30323 -0.17255
0.30655 0.30183 -0.1734
0.30318 0.30211 -0.1743
0.3055 0.30066 -0.17514
0.30211 0.30106 -0.17607
0.30439 0.29949 -0.1768
0.30095 0.30011 -0.17789
0.30319 0.29839 -0.17849
0.29971 0.29893 -0.17954
0.30191 0.29714 -0.18003
0.2984 0.2976 -0.18095
0.30057 0.29581 -0.18142
0.29713 0.29627 -0.18239
0.29922 0.29439 -0.18268
0.29581 0.2949 -0.18376
0.29788 0.29304 -0.18399
0.2945 0.29351 -0.18509
0.29669 0.29186 -0.1856
0.29326 0.2922 -0.18655
0.29542 0.2905 -0.18701
0.29203 0.29099 -0.18809
0.29422 0.28937 -0.18862
0.29075 0.28989 -0.1897
0.29297 0.28842 -0.19035
0.28945 0.28861 -0.1912
0.29166 0.28723 -0.19192
0.28811 0.28712 -0.19241
0.29031 0.28579 -0.19317
0.28681 0.28568 -0.19369
0.28899 0.28437 -0.19446
0.28549 0.28426 -0.19499
0.28767 0.28302 -0.19584
0.28424 0.28286 -0.19636
0.28638 0.28149 -0.19703
0.28301 0.2815 -0.19779
0.28511 0.28005 -0.19832
0.28183 0.28027 -0.19933
0.28387 0.27874 -0.19976
0.28064 0.27927 -0.20109
0.28265 0.27766 -0.20139
0.27935 0.27795 -0.20254
0.28146 0.27668 -0.20317
0.27809 0.27668 -0.20404
0.28017 0.2754 -0.20465
0.27683 0.27537 -0.20549
0.27889 0.27406 -0.20605
0.27562 0.2742 -0.20709
0.27765 0.27284 -0.20758
0.2745 0.27311 -0.20882
0.2765 0.27174 -0.20927
0.27336 0.27197 -0.2105
0.27538 0.27071 -0.21105
0.2722 0.27077 -0.21214
0.2742 0.26948 -0.21264
0.27103 0.2696 -0.21376
0.27298 0.26822 -0.21416
0.26991 0.26849 -0.21546
0.27187 0.26718 -0.21592
0.26889 0.26758 -0.21734
0.27073 0.26606 -0.2176
0.26794 0.26672 -0.21927
0.26971 0.26513 -0.21946
0.26877 0.26436 -0.22147
0.26708 0.26599 -0.2214
0.26583 0.26458 -0.2229
0.26765 0.26316 -0.22316
0.26462 0.26309 -0.22422
0.26652 0.26184 -0.22469
0.26362 0.26195 -0.22593
0.26563 0.26099 -0.22663
0.26282 0.26131 -0.22801
0.26483 0.26037 -0.22879
0.26192 0.2604 -0.23004
0.26381 0.25912 -0.23053
0.26088 0.25906 -0.23164
0.26283 0.25792 -0.23222
0.26003 0.2581 -0.23356
0.26198 0.25694 -0.23413
0.25925 0.25726 -0.23559
0.26122 0.25614 -0.23618
0.25845 0.25626 -0.23755
0.26035 0.25508 -0.23808
0.25772 0.25534 -0.23954
0.25952 0.25401 -0.23997
0.25701 0.25447 -0.24156
0.25884 0.25321 -0.24201
0.25836 0.25295 -0.24425
0.25646 0.25408 -0.24377
0.25814 0.25317 -0.24654
0.25602 0.25372 -0.24602
0.258 0.254 -0.24874
0.25579 0.25323 -0.24831
0.25783 0.25431 -0.25107
0.25583 0.25314 -0.25065
0.25765 0.25451 -0.25339
0.25569 0.25339 -0.25299
0.25758 0.25472 -0.25572
0.25556 0.25377 -0.25528
0.25736 0.25495 -0.2581
0.25524 0.25423 -0.25756
0.25739 0.25517 -0.26071
0.25508 0.25471 -0.25998
0.32429 0.32164 -0.11654
0.32065 0.3218 -0.11811
0.31973 0.32068 -0.11997
0.31893 0.31988 -0.12201
0.31813 0.31905 -0.12404
0.31737 0.31824 -0.1261
0.31663 0.31731 -0.12812
0.316 0.317 -0.13037
0.3154 0.31624 -0.13252
0.3153 0.31669 -0.13492
0.31482 0.31599 -0.13725
0.31388 0.31478 -0.13907
0.31305 0.31381 -0.14101
0.31229 0.3131 -0.14309
0.3115 0.31241 -0.14516
0.31084 0.31195 -0.14733
0.31028 0.31162 -0.14956
0.30974 0.31132 -0.15179
0.30928 0.31118 -0.15411
0.30878 0.31079 -0.1564
0.30816 0.31018 -0.15856
0.30753 0.30974 -0.16076
0.30691 0.30948 -0.163
0.30624 0.30914 -0.16523
0.30536 0.30857 -0.16751
0.3041 0.30726 -0.16919
0.30285 0.30586 -0.17061
0.30171 0.30449 -0.17208
0.30066 0.30333 -0.17379
0.29953 0.30214 -0.17545
0.29834 0.30109 -0.17717
0.29713 0.30005 -0.17889
0.29591 0.29904 -0.18061
0.29472 0.2979 -0.18229
0.29347 0.2966 -0.18384
0.29218 0.29516 -0.18521
0.29083 0.2936 -0.18633
0.28954 0.29218 -0.18764
0.28827 0.29104 -0.18922
0.28706 0.28994 -0.19093
0.28575 0.28848 -0.19228
0.28441 0.28684 -0.1933
0.28311 0.28537 -0.19455
0.28189 0.28408 -0.19606
0.28068 0.28272 -0.19752
0.27946 0.28138 -0.19899
0.27825 0.28026 -0.20063
0.27706 0.27909 -0.20228
0.27581 0.27779 -0.20377
0.27461 0.27658 -0.20537
0.27348 0.27554 -0.20712
0.27237 0.27441 -0.20884
0.27127 0.27327 -0.21057
0.27015 0.27212 -0.21227
0.26899 0.27095 -0.21393
0.2679 0.26985 -0.21567
0.26681 0.26883 -0.21743
0.26598 0.26814 -0.21951
0.26497 0.26715 -0.22145
0.26379 0.26577 -0.223
0.26264 0.26433 -0.22442
0.26154 0.263 -0.22594
0.26069 0.26219 -0.22795
0.2598 0.26133 -0.22997
0.25883 0.26017 -0.23177
0.2579 0.25905 -0.23356
0.25709 0.25813 -0.23554
0.25632 0.25717 -0.23753
0.25556 0.25618 -0.2395
0.25492 0.25543 -0.2416
0.25436 0.25499 -0.24382
0.25385 0.25441 -0.24603
0.2535 0.25351 -0.24817
0.25355 0.25235 -0.25033
0.25362 0.25228 -0.25282
0.25351 0.25276 -0.25518
0.25314 0.25342 -0.2574
0.25293 0.25383 -0.25971
0.32155 0.32271 -0.11615
0.31796 0.32298 -0.11777
0.31888 0.32397 -0.1158
0.31701 0.32175 -0.11955
0.31614 0.32059 -0.12137
0.3154 0.32 -0.12354
0.31462 0.31908 -0.12557
0.3139 0.31819 -0.12759
0.31323 0.31748 -0.1297
0.31267 0.31691 -0.13187
0.31257 0.31751 -0.13412
0.31279 0.31839 -0.13676
0.31194 0.31701 -0.13892
0.31093 0.31573 -0.14065
0.31 0.31469 -0.14249
0.30915 0.31386 -0.14448
0.3085 0.31341 -0.14666
0.30795 0.31304 -0.14892
0.30723 0.31231 -0.15105
0.30671 0.31197 -0.15328
0.30621 0.31171 -0.15554
0.30571 0.31141 -0.15782
0.30515 0.31114 -0.16009
0.30452 0.31093 -0.16237
0.30374 0.31045 -0.16461
0.30275 0.30961 -0.16667
0.30156 0.30832 -0.16833
0.3004 0.30721 -0.17006
0.29928 0.3059 -0.17165
0.29817 0.30459 -0.17325
0.29706 0.30345 -0.17496
0.29588 0.30244 -0.17672
0.29465 0.30135 -0.17842
0.29332 0.3001 -0.17992
0.29211 0.29894 -0.18155
0.29091 0.29784 -0.18326
0.28967 0.29648 -0.18477
0.28837 0.29494 -0.18602
0.28708 0.29345 -0.18728
0.28579 0.29218 -0.18876
0.28455 0.29095 -0.19033
0.28327 0.28951 -0.19171
0.28197 0.28787 -0.19279
0.28067 0.2863 -0.19395
0.27946 0.285 -0.19548
0.27827 0.2837 -0.19702
0.27709 0.28244 -0.19861
0.27594 0.28141 -0.20037
0.27484 0.28045 -0.20224
0.27362 0.27916 -0.2038
0.27242 0.27789 -0.20535
0.27137 0.27693 -0.2072
0.27033 0.27588 -0.20902
0.26928 0.27477 -0.21082
0.26818 0.2736 -0.21255
0.26702 0.2724 -0.21419
0.26593 0.27129 -0.21595
0.26477 0.27014 -0.21762
0.26382 0.26926 -0.21957
0.26289 0.26836 -0.22156
0.26184 0.26712 -0.22332
0.26068 0.26562 -0.22471
0.25974 0.26444 -0.22647
0.25887 0.26358 -0.2285
0.25774 0.26241 -0.23021
0.25677 0.26125 -0.23201
0.25585 0.26012 -0.23383
0.25492 0.25897 -0.23563
0.25424 0.25817 -0.23773
0.25346 0.25713 -0.23968
0.25277 0.25624 -0.24173
0.25222 0.25582 -0.24398
0.25172 0.25524 -0.2462
0.25129 0.25417 -0.24826
0.25117 0.25286 -0.2503
0.25115 0.25208 -0.25268
0.25115 0.25211 -0.25518
0.2509 0.25285 -0.25743
0.25077 0.25314 -0.25972
0.31531 0.32421 -0.11709
0.31628 0.32531 -0.11518
0.31441 0.32305 -0.11892
0.31361 0.32212 -0.12091
0.31272 0.3209 -0.12275
0.31194 0.3199 -0.12472
0.31126 0.31913 -0.12683
0.31059 0.31829 -0.12891
0.31005 0.31784 -0.13109
0.30979 0.3179 -0.13338
0.30979 0.31882 -0.13572
0.30931 0.31841 -0.13826
0.30841 0.31706 -0.14013
0.30757 0.31613 -0.1421
0.30674 0.31535 -0.14414
0.30604 0.31481 -0.14629
0.30564 0.31468 -0.14863
0.30502 0.31406 -0.15088
0.30427 0.3132 -0.15293
0.3037 0.3128 -0.15512
0.30322 0.3126 -0.1574
0.30268 0.31239 -0.1597
0.30202 0.31214 -0.16199
0.30121 0.31158 -0.16421
0.30019 0.3106 -0.16617
0.29905 0.30952 -0.16795
0.29789 0.30847 -0.16974
0.29675 0.30718 -0.17137
0.29565 0.30589 -0.17301
0.29453 0.30475 -0.17472
0.29334 0.30372 -0.17647
0.29208 0.30256 -0.17811
0.29073 0.30119 -0.17952
0.28945 0.29975 -0.18088
0.28824 0.29849 -0.18246
0.28702 0.29727 -0.18408
0.28581 0.29605 -0.1857
0.28456 0.29465 -0.18712
0.28325 0.29328 -0.18852
0.282 0.29189 -0.18996
0.28073 0.29034 -0.19121
0.27945 0.28873 -0.19237
0.27819 0.28725 -0.19369
0.27699 0.28591 -0.19519
0.27583 0.28469 -0.19683
0.27472 0.28358 -0.19857
0.27358 0.28252 -0.20034
0.27246 0.28142 -0.20212
0.27125 0.28011 -0.20366
0.27014 0.27902 -0.20541
0.26909 0.27805 -0.20728
0.26808 0.27703 -0.20915
0.26705 0.27594 -0.21098
0.26601 0.27483 -0.21277
0.26496 0.27372 -0.21457
0.26389 0.27261 -0.21636
0.26279 0.27151 -0.21811
0.26179 0.27052 -0.21998
0.26086 0.2696 -0.22197
0.25977 0.26828 -0.22365
0.25874 0.26693 -0.22526
0.25787 0.26582 -0.22712
0.25678 0.26469 -0.2289
0.25566 0.26348 -0.2306
0.25466 0.26227 -0.23234
0.25366 0.26098 -0.23403
0.25283 0.25994 -0.23595
0.25207 0.25897 -0.23794
0.2514 0.2581 -0.24002
0.25081 0.25736 -0.24216
0.25025 0.25689 -0.24441
0.24956 0.25593 -0.24647
0.24904 0.25471 -0.24844
0.24894 0.2536 -0.25058
0.24893 0.25308 -0.25296
0.24877 0.25281 -0.25536
0.2486 0.25324 -0.25768
0.24851 0.25304 -0.25999
0.31257 0.32504 -0.11624
0.31357 0.32642 -0.11455
0.3117 0.32406 -0.11816
0.31091 0.32312 -0.12016
0.31007 0.32196 -0.12205
0.30933 0.321 -0.12407
0.30865 0.32019 -0.12616
0.30801 0.31945 -0.12829
0.3074 0.31872 -0.13041
0.30703 0.31824 -0.13266
0.30693 0.31844 -0.135
0.30647 0.31841 -0.13734
[...]
CELL_DATA 21061
SCALARS brightness_temperature float
LOOKUP_TABLE default
POINT_DATA 10756
CELL_DATA 21061
SCALARS emission_angle float
LOOKUP_TABLE default
POINT_DATA 10756
CELL_DATA 21061
SCALARS incidence_angle float
LOOKUP_TABLE default
POINT_DATA 10756
CELL_DATA 21061
SCALARS phase_angle float
LOOKUP_TABLE default
POINT_DATA 10756
CELL_DATA 21061
SCALARS local_solar_time float
LOOKUP_TABLE default
POINT_DATA 10756
CELL_DATA 21061
SCALARS local_solar_time_normal_vector float
LOOKUP_TABLE default
CELL_DATA 21061
SCALARS pixel_x float
LOOKUP_TABLE default
POINT_DATA 10756
CELL_DATA 21061
SCALARS pixel_y float
LOOKUP_TABLE default
POINT_DATA 10756
CELL_DATA 21061
SCALARS longitude float
LOOKUP_TABLE default
POINT_DATA 10756
CELL_DATA 21061
SCALARS latitude float
LOOKUP_TABLE default
