# vtk DataFile Version 3.0
SHAPE_sfm_50k_v20200323
ASCII
DATASET POLYDATA
POINTS 605 float
-0.07218 -0.36429 -0.22691
-0.0744 -0.36248 -0.22822
-0.07211 -0.36231 -0.22939
-0.06987 -0.36654 -0.22597
-0.06996 -0.36439 -0.22829
-0.06973 -0.36192 -0.23031
-0.07135 -0.36014 -0.23162
-0.06898 -0.35977 -0.23258
-0.07073 -0.35801 -0.23387
-0.06837 -0.35764 -0.23485
-0.07112 -0.35576 -0.23605
-0.06869 -0.35517 -0.23678
-0.06767 -0.36701 -0.22741
-0.06753 -0.36435 -0.22921
-0.06726 -0.36176 -0.2311
-0.0665 -0.35948 -0.23326
-0.06592 -0.35743 -0.23564
-0.06633 -0.35526 -0.2379
-0.06914 -0.35273 -0.23874
-0.06673 -0.35261 -0.23963
-0.06557 -0.36865 -0.22519
-0.06514 -0.36725 -0.22806
-0.06504 -0.3646 -0.22985
-0.06473 -0.36192 -0.23161
-0.06397 -0.35963 -0.23375
-0.0634 -0.35738 -0.23595
-0.06381 -0.35509 -0.23811
-0.06421 -0.35248 -0.23988
-0.06498 -0.34984 -0.24151
-0.0675 -0.34995 -0.24125
-0.06618 -0.34756 -0.24334
-0.06331 -0.36992 -0.22587
-0.06254 -0.36774 -0.22806
-0.06253 -0.3652 -0.22999
-0.06226 -0.36259 -0.23182
-0.06149 -0.36021 -0.23382
-0.06089 -0.35762 -0.23565
-0.06129 -0.3552 -0.23771
-0.06169 -0.35267 -0.23962
-0.06246 -0.35015 -0.24142
-0.06365 -0.34772 -0.24308
-0.06401 -0.34541 -0.24531
-0.06133 -0.37149 -0.22676
-0.06022 -0.36896 -0.22843
-0.06008 -0.36612 -0.22993
-0.05989 -0.3636 -0.23193
-0.05906 -0.36097 -0.23358
-0.0584 -0.35828 -0.23529
-0.05878 -0.35579 -0.23729
-0.05923 -0.35345 -0.23946
-0.05999 -0.3508 -0.24112
-0.06118 -0.3484 -0.24284
-0.06155 -0.34597 -0.24493
-0.06102 -0.34362 -0.24704
-0.06346 -0.34324 -0.2476
-0.06243 -0.34068 -0.24925
-0.06 -0.34132 -0.24905
-0.06092 -0.3385 -0.25109
-0.05851 -0.33917 -0.25093
-0.0597 -0.33635 -0.2532
-0.05733 -0.33709 -0.25311
-0.05896 -0.33433 -0.25561
-0.05659 -0.33492 -0.25538
-0.056 -0.33264 -0.25757
-0.05837 -0.33217 -0.25789
-0.05549 -0.33051 -0.25997
-0.05783 -0.32993 -0.26014
-0.05534 -0.3284 -0.2624
-0.05914 -0.37291 -0.22746
-0.058 -0.37025 -0.22901
-0.05772 -0.36724 -0.23012
-0.05744 -0.36436 -0.23153
-0.05658 -0.36154 -0.23295
-0.05591 -0.35907 -0.23502
-0.05634 -0.35669 -0.23715
-0.05677 -0.35415 -0.23908
-0.05756 -0.35166 -0.24094
-0.05873 -0.34919 -0.2426
-0.05911 -0.34672 -0.24463
-0.05858 -0.34429 -0.24669
-0.05759 -0.34206 -0.24879
-0.05616 -0.34005 -0.25087
-0.05498 -0.3379 -0.25296
-0.05425 -0.33566 -0.25515
-0.05365 -0.33324 -0.25725
-0.05316 -0.33113 -0.2597
-0.05304 -0.32909 -0.2622
-0.05311 -0.327 -0.26463
-0.05537 -0.32617 -0.2647
-0.05659 -0.37385 -0.2272
-0.0556 -0.37147 -0.22926
-0.0554 -0.36841 -0.23037
-0.05503 -0.36529 -0.23123
-0.05414 -0.36253 -0.23278
-0.05353 -0.36012 -0.23492
-0.05393 -0.3576 -0.23686
-0.05437 -0.35509 -0.23885
-0.05518 -0.35264 -0.24076
-0.05636 -0.35022 -0.24248
-0.05674 -0.34769 -0.24443
-0.05621 -0.34523 -0.24646
-0.05526 -0.34302 -0.24862
-0.05387 -0.34103 -0.25074
-0.05275 -0.339 -0.25296
-0.05196 -0.33651 -0.25485
-0.05134 -0.33404 -0.25691
-0.05087 -0.33193 -0.25938
-0.05078 -0.32993 -0.26194
-0.0509 -0.32794 -0.26445
-0.05317 -0.37206 -0.22822
-0.05417 -0.37433 -0.22611
-0.05297 -0.36936 -0.23001
-0.05267 -0.36621 -0.23087
-0.0518 -0.36362 -0.2327
-0.05123 -0.36133 -0.23491
-0.05158 -0.35869 -0.2367
-0.05203 -0.35617 -0.23867
-0.05285 -0.3537 -0.24054
-0.05406 -0.35133 -0.24235
-0.05441 -0.34872 -0.24422
-0.0539 -0.34626 -0.24625
-0.05297 -0.34402 -0.24838
-0.05161 -0.34205 -0.25053
-0.05049 -0.33993 -0.25266
-0.0497 -0.33746 -0.25458
-0.04908 -0.33498 -0.25661
-0.04863 -0.33283 -0.25906
-0.04858 -0.3309 -0.26167
-0.04875 -0.329 -0.26426
-0.05096 -0.37244 -0.22681
-0.05197 -0.37466 -0.22465
-0.05078 -0.36977 -0.2286
-0.05037 -0.36693 -0.23012
-0.04948 -0.36457 -0.23221
-0.04899 -0.36265 -0.2348
-0.04936 -0.35994 -0.23649
-0.0498 -0.35738 -0.2384
-0.05062 -0.35492 -0.24029
-0.05179 -0.35241 -0.24194
-0.05218 -0.3499 -0.24394
-0.05168 -0.34744 -0.24597
-0.05077 -0.34521 -0.24811
-0.0494 -0.34315 -0.25015
-0.04826 -0.34092 -0.25219
-0.04753 -0.33861 -0.25431
-0.04693 -0.33612 -0.25628
-0.04645 -0.33376 -0.25853
-0.04644 -0.33183 -0.26116
-0.04659 -0.32984 -0.26365
-0.04893 -0.37229 -0.22508
-0.04992 -0.37444 -0.22292
-0.04857 -0.3699 -0.22717
-0.04798 -0.36745 -0.22922
-0.04712 -0.3654 -0.23159
-0.04661 -0.36326 -0.23392
-0.04705 -0.36089 -0.23599
-0.0475 -0.35834 -0.23789
-0.04834 -0.35588 -0.23975
-0.04952 -0.35349 -0.24157
-0.04992 -0.35096 -0.24356
-0.04948 -0.34862 -0.24575
-0.04857 -0.34636 -0.24786
-0.0472 -0.34432 -0.24993
-0.04606 -0.34204 -0.25191
-0.04535 -0.3397 -0.25401
-0.04478 -0.33725 -0.25603
-0.04428 -0.33483 -0.25816
-0.04423 -0.33262 -0.26057
-0.04439 -0.33056 -0.26303
-0.04652 -0.37246 -0.22392
-0.04748 -0.37472 -0.22182
-0.04612 -0.37026 -0.22624
-0.04553 -0.36803 -0.22851
-0.0447 -0.36603 -0.23093
-0.04419 -0.36407 -0.23344
-0.04465 -0.36155 -0.23534
-0.04513 -0.35888 -0.23708
-0.04598 -0.35642 -0.23895
-0.04718 -0.35419 -0.24095
-0.04761 -0.3518 -0.2431
-0.04718 -0.34946 -0.2453
-0.0463 -0.3473 -0.24755
-0.04498 -0.34539 -0.24977
-0.04385 -0.34315 -0.25179
-0.04312 -0.34072 -0.25379
-0.04259 -0.33831 -0.25587
-0.0421 -0.33587 -0.25796
-0.042 -0.33352 -0.26022
-0.04212 -0.33128 -0.26254
-0.04398 -0.37292 -0.22327
-0.04494 -0.3751 -0.22107
-0.04361 -0.37085 -0.22572
-0.04304 -0.36867 -0.22805
-0.04222 -0.36662 -0.23042
-0.04173 -0.36462 -0.2329
-0.04219 -0.36212 -0.23483
-0.04268 -0.35935 -0.23642
-0.04356 -0.35681 -0.23817
-0.0448 -0.35455 -0.24012
-0.04525 -0.35216 -0.24232
-0.04482 -0.34986 -0.2446
-0.04394 -0.34784 -0.247
-0.04265 -0.34609 -0.24939
-0.04158 -0.34408 -0.25166
-0.04089 -0.34174 -0.25374
-0.04035 -0.33927 -0.25575
-0.03986 -0.33679 -0.25779
-0.03974 -0.33432 -0.25992
-0.03986 -0.33207 -0.26226
-0.04147 -0.37358 -0.22272
-0.04242 -0.37569 -0.22043
-0.04113 -0.37139 -0.22507
-0.04058 -0.36929 -0.22749
-0.03977 -0.3673 -0.22991
-0.03927 -0.36518 -0.23227
-0.03974 -0.36267 -0.23418
-0.04023 -0.35993 -0.23584
-0.04109 -0.35733 -0.23755
-0.04238 -0.35496 -0.2393
-0.04289 -0.35245 -0.24136
-0.04249 -0.35017 -0.2437
-0.04161 -0.34826 -0.24623
-0.04032 -0.34666 -0.24874
-0.03933 -0.345 -0.25132
-0.03871 -0.34281 -0.25358
-0.03818 -0.34032 -0.25554
-0.03769 -0.33778 -0.2575
-0.03754 -0.33522 -0.25953
-0.03764 -0.33289 -0.26182
-0.03988 -0.37636 -0.21999
-0.03899 -0.37449 -0.22251
-0.0386 -0.37206 -0.22464
-0.03808 -0.36995 -0.22706
-0.03729 -0.36802 -0.22956
-0.03681 -0.36596 -0.23201
-0.03726 -0.36331 -0.23376
-0.03775 -0.36052 -0.23539
-0.03862 -0.35811 -0.23738
-0.0399 -0.35557 -0.23885
-0.04045 -0.35289 -0.24066
-0.0401 -0.35047 -0.24291
-0.03924 -0.34861 -0.24552
-0.03796 -0.34722 -0.24818
-0.03703 -0.34581 -0.25093
-0.03646 -0.34371 -0.2533
-0.03594 -0.34119 -0.25526
-0.03546 -0.33859 -0.25715
-0.03529 -0.33601 -0.25918
-0.0354 -0.33372 -0.26152
-0.03647 -0.37506 -0.22205
-0.03734 -0.37697 -0.21953
-0.03618 -0.37308 -0.22461
-0.0356 -0.37077 -0.22684
-0.03484 -0.36888 -0.22938
-0.03433 -0.36663 -0.23166
-0.0348 -0.3641 -0.23358
-0.03526 -0.36119 -0.23502
-0.03616 -0.35864 -0.23684
-0.03745 -0.35626 -0.23856
-0.03799 -0.35348 -0.24019
-0.03765 -0.35084 -0.24221
-0.0368 -0.3489 -0.24481
-0.03558 -0.34774 -0.24763
-0.03468 -0.34634 -0.25039
-0.03413 -0.34433 -0.25284
-0.03364 -0.34183 -0.25482
-0.03316 -0.33921 -0.25671
-0.03302 -0.33673 -0.25887
-0.03314 -0.33444 -0.26122
-0.03477 -0.37744 -0.2192
-0.0339 -0.37541 -0.22162
-0.03363 -0.3735 -0.22426
-0.03317 -0.37166 -0.22691
-0.0324 -0.36976 -0.22944
-0.0318 -0.36723 -0.23144
-0.03235 -0.36494 -0.23366
-0.03279 -0.36206 -0.23513
-0.03365 -0.35926 -0.23657
-0.03495 -0.35674 -0.23816
-0.03549 -0.35402 -0.23989
-0.03512 -0.35137 -0.24188
-0.03431 -0.34948 -0.24454
-0.03313 -0.34825 -0.24733
-0.03227 -0.34683 -0.2501
-0.03175 -0.34488 -0.25261
-0.03127 -0.34235 -0.25457
-0.0308 -0.33973 -0.25648
-0.03068 -0.33726 -0.25866
-0.03081 -0.335 -0.26104
-0.03215 -0.37773 -0.21905
-0.03129 -0.3757 -0.22148
-0.03105 -0.37394 -0.22424
-0.03063 -0.37216 -0.22694
-0.02984 -0.3701 -0.22935
-0.02936 -0.36808 -0.23187
-0.02996 -0.3658 -0.23409
-0.03043 -0.36298 -0.23567
-0.03113 -0.35997 -0.23671
-0.03242 -0.35732 -0.23816
-0.03297 -0.35464 -0.23996
-0.03265 -0.35209 -0.24205
-0.0319 -0.35027 -0.24473
-0.03071 -0.34891 -0.24745
-0.02983 -0.34733 -0.25013
-0.02933 -0.34532 -0.25261
-0.02886 -0.34267 -0.25443
-0.02841 -0.34008 -0.2564
-0.0283 -0.33755 -0.25854
-0.02844 -0.33543 -0.26106
-0.02948 -0.37784 -0.21909
-0.02868 -0.37607 -0.22173
-0.02846 -0.37417 -0.22438
-0.02803 -0.37218 -0.22694
-0.02725 -0.37026 -0.22951
-0.02703 -0.36905 -0.23262
-0.02754 -0.3665 -0.23463
-0.02803 -0.36371 -0.23623
-0.02871 -0.36071 -0.2373
-0.02992 -0.35793 -0.23855
-0.03052 -0.35529 -0.24039
-0.03022 -0.35275 -0.2425
-0.02948 -0.35088 -0.24514
-0.02832 -0.34949 -0.24785
-0.02743 -0.34782 -0.25047
-0.02689 -0.3455 -0.25266
-0.02643 -0.34279 -0.25443
-0.02598 -0.34008 -0.25628
-0.02588 -0.33772 -0.25863
-0.02606 -0.3357 -0.26123
-0.02746 -0.38037 -0.21703
-0.02685 -0.37816 -0.21938
-0.02608 -0.37629 -0.22195
-0.02587 -0.37435 -0.22457
-0.02546 -0.37249 -0.22723
-0.02471 -0.37041 -0.22972
-0.02445 -0.36959 -0.23304
-0.02511 -0.36719 -0.23529
-0.02558 -0.36427 -0.23677
-0.02642 -0.36149 -0.23821
-0.02757 -0.35867 -0.23936
-0.02812 -0.35594 -0.24107
-0.02787 -0.35346 -0.24323
-0.02712 -0.3515 -0.24577
-0.02595 -0.35004 -0.24844
-0.02503 -0.34819 -0.25094
-0.02444 -0.34554 -0.25274
-0.02397 -0.34273 -0.25441
-0.02354 -0.34019 -0.25651
-0.02347 -0.33789 -0.2589
-0.02366 -0.33585 -0.26148
-0.02481 -0.3804 -0.21728
-0.02424 -0.37835 -0.21978
-0.02346 -0.37629 -0.2222
-0.02329 -0.37448 -0.22491
-0.0229 -0.37253 -0.22751
-0.02218 -0.37032 -0.22991
-0.02182 -0.3692 -0.23303
-0.02251 -0.36704 -0.23542
-0.02308 -0.3644 -0.23728
-0.02411 -0.362 -0.23921
-0.02534 -0.3593 -0.24048
-0.02583 -0.3565 -0.24206
-0.02562 -0.35404 -0.24423
-0.02485 -0.35202 -0.24669
-0.02365 -0.35042 -0.24928
-0.0226 -0.34812 -0.25133
-0.02201 -0.34534 -0.25296
-0.02157 -0.34271 -0.25489
-0.02115 -0.34008 -0.25687
-0.02111 -0.33796 -0.25942
-0.02228 -0.3802 -0.21815
[...]
CELL_DATA 1106
SCALARS brightness_temperature float
LOOKUP_TABLE default
POINT_DATA 605
CELL_DATA 1106
SCALARS emission_angle float
LOOKUP_TABLE default
POINT_DATA 605
CELL_DATA 1106
SCALARS incidence_angle float
LOOKUP_TABLE default
POINT_DATA 605
CELL_DATA 1106
SCALARS phase_angle float
LOOKUP_TABLE default
POINT_DATA 605
CELL_DATA 1106
SCALARS local_solar_time float
LOOKUP_TABLE default
POINT_DATA 605
CELL_DATA 1106
SCALARS local_solar_time_normal_vector float
LOOKUP_TABLE default
CELL_DATA 1106
SCALARS pixel_x float
LOOKUP_TABLE default
POINT_DATA 605
CELL_DATA 1106
SCALARS pixel_y float
LOOKUP_TABLE default
POINT_DATA 605
CELL_DATA 1106
SCALARS longitude float
LOOKUP_TABLE default
POINT_DATA 605
CELL_DATA 1106
SCALARS latitude float
LOOKUP_TABLE default
