# vtk DataFile Version 3.0
SHAPE_sfm_50k_v20200323
ASCII
DATASET POLYDATA
POINTS 603 float
-0.16829 0.44063 -0.10093
-0.17069 0.43907 -0.10291
-0.17138 0.44137 -0.10088
-0.16764 0.43852 -0.10294
-0.16958 0.43659 -0.10419
-0.16655 0.43629 -0.10458
-0.16873 0.43461 -0.10619
-0.17386 0.43887 -0.10279
-0.17463 0.44113 -0.10071
-0.17263 0.43637 -0.10395
-0.17173 0.43424 -0.10579
-0.17101 0.43274 -0.10824
-0.16802 0.43319 -0.10869
-0.17027 0.4312 -0.11067
-0.1673 0.43173 -0.11118
-0.16948 0.42929 -0.11283
-0.16657 0.42989 -0.11342
-0.16867 0.42777 -0.11524
-0.16583 0.42852 -0.11593
-0.1679 0.42638 -0.11775
-0.16507 0.42712 -0.11845
-0.16727 0.42491 -0.12026
-0.16453 0.42584 -0.12108
-0.16656 0.4233 -0.12265
-0.16378 0.42413 -0.12339
-0.16528 0.42162 -0.12475
-0.16246 0.4224 -0.12542
-0.16394 0.41982 -0.12666
-0.15833 0.41065 -0.14158
-0.16045 0.40728 -0.14249
-0.1607 0.4094 -0.1404
-0.15791 0.4084 -0.14351
-0.16015 0.40538 -0.14472
-0.15756 0.40643 -0.14569
-0.15904 0.40365 -0.14685
-0.17697 0.43823 -0.10216
-0.17777 0.44042 -0.1
-0.17557 0.43577 -0.10332
-0.17469 0.43375 -0.10528
-0.17386 0.43198 -0.10749
-0.17306 0.43035 -0.10982
-0.1724 0.42879 -0.11225
-0.17157 0.42726 -0.11464
-0.17069 0.42559 -0.11693
-0.17003 0.42412 -0.11943
-0.16931 0.42249 -0.12177
-0.16808 0.42091 -0.12397
-0.16676 0.41916 -0.12591
-0.16546 0.41741 -0.12794
-0.16267 0.41814 -0.12879
-0.16455 0.41578 -0.13027
-0.16184 0.41664 -0.13124
-0.16404 0.41412 -0.13266
-0.16147 0.41514 -0.13379
-0.16356 0.41231 -0.13496
-0.16143 0.41378 -0.13645
-0.1631 0.41021 -0.137
-0.1611 0.41174 -0.1386
-0.16293 0.40803 -0.13903
-0.16292 0.40617 -0.14136
-0.16261 0.40432 -0.14357
-0.16166 0.40278 -0.14587
-0.16071 0.40107 -0.14814
-0.15821 0.40212 -0.14931
-0.17933 0.4372 -0.10025
-0.17992 0.43899 -0.09799
-0.17843 0.43532 -0.10233
-0.1776 0.43345 -0.10444
-0.17676 0.4317 -0.10664
-0.1759 0.42994 -0.10886
-0.17526 0.4285 -0.11134
-0.17459 0.42755 -0.11412
-0.17362 0.42562 -0.11624
-0.17276 0.42366 -0.11829
-0.17197 0.42195 -0.12051
-0.17078 0.42044 -0.12276
-0.16955 0.41884 -0.12487
-0.16829 0.4172 -0.12699
-0.16729 0.41542 -0.12915
-0.16665 0.41359 -0.13134
-0.16598 0.41157 -0.13342
-0.16555 0.40947 -0.13549
-0.16539 0.40731 -0.13755
-0.16526 0.4054 -0.13979
-0.16485 0.40348 -0.14188
-0.16408 0.40219 -0.14439
-0.1634 0.40089 -0.14701
-0.16256 0.3991 -0.14927
-0.18108 0.43473 -0.1009
-0.18174 0.43632 -0.09852
-0.18048 0.43325 -0.10337
-0.17968 0.43166 -0.10569
-0.17881 0.42997 -0.10794
-0.17799 0.42812 -0.11008
-0.17728 0.427 -0.1127
-0.17658 0.42574 -0.11538
-0.17558 0.42358 -0.11723
-0.17456 0.42155 -0.11905
-0.17335 0.42004 -0.12127
-0.17224 0.41861 -0.12356
-0.17103 0.4171 -0.12579
-0.17001 0.41532 -0.12792
-0.16928 0.41338 -0.12996
-0.16857 0.41132 -0.13195
-0.16813 0.40923 -0.13402
-0.16795 0.40706 -0.13603
-0.16771 0.40504 -0.13815
-0.16731 0.40314 -0.14026
-0.16635 0.40168 -0.14262
-0.16567 0.40044 -0.14525
-0.165 0.39895 -0.14773
-0.18387 0.4342 -0.09972
-0.18464 0.43591 -0.09748
-0.18314 0.43254 -0.102
-0.18247 0.43121 -0.10451
-0.18158 0.42954 -0.10677
-0.18083 0.42789 -0.10907
-0.17994 0.42639 -0.1114
-0.17925 0.42504 -0.11396
-0.17835 0.4231 -0.11605
-0.17727 0.42107 -0.11782
-0.17587 0.41938 -0.11978
-0.1748 0.41802 -0.12213
-0.17372 0.41669 -0.12452
-0.17272 0.41499 -0.1267
-0.17203 0.41314 -0.12884
-0.17133 0.41112 -0.13086
-0.17089 0.40905 -0.13293
-0.17078 0.40711 -0.13513
-0.17047 0.40495 -0.13707
-0.17 0.4029 -0.13904
-0.16895 0.40132 -0.14127
-0.1681 0.3999 -0.14374
-0.16745 0.39852 -0.14627
-0.16724 0.39711 -0.14883
-0.18667 0.43342 -0.0988
-0.18584 0.43163 -0.10096
-0.18506 0.4301 -0.10329
-0.1846 0.42927 -0.10612
-0.18378 0.42751 -0.1084
-0.18259 0.42551 -0.11022
-0.18151 0.42378 -0.11232
-0.18066 0.42195 -0.11444
-0.17961 0.41996 -0.11628
-0.1784 0.41846 -0.11847
-0.17732 0.41708 -0.12079
-0.17624 0.41576 -0.12317
-0.17536 0.41424 -0.12551
-0.17472 0.41249 -0.12775
-0.17411 0.41066 -0.12994
-0.17379 0.40895 -0.1323
-0.17371 0.40716 -0.13464
-0.17333 0.40479 -0.13636
-0.17289 0.40284 -0.13845
-0.17177 0.40106 -0.14045
-0.1708 0.39945 -0.14273
-0.17007 0.39797 -0.14517
-0.16987 0.39663 -0.14776
-0.18868 0.43066 -0.10037
-0.18946 0.43236 -0.09812
-0.18776 0.42893 -0.10251
-0.1871 0.42772 -0.10507
-0.18663 0.42647 -0.10773
-0.18557 0.42471 -0.10992
-0.18417 0.42262 -0.1115
-0.18287 0.42047 -0.11301
-0.18194 0.41856 -0.115
-0.18084 0.41716 -0.11732
-0.17969 0.41572 -0.11956
-0.17862 0.41441 -0.12194
-0.17776 0.41293 -0.12429
-0.1773 0.4114 -0.12673
-0.17682 0.40979 -0.12911
-0.17651 0.40814 -0.13148
-0.17647 0.4064 -0.13381
-0.17625 0.40453 -0.13603
-0.17583 0.40291 -0.13838
-0.1747 0.401 -0.14024
-0.17366 0.39911 -0.14223
-0.17283 0.39742 -0.14448
-0.17245 0.39576 -0.14683
-0.19138 0.42933 -0.09993
-0.1922 0.43108 -0.09775
-0.19046 0.42761 -0.10208
-0.18955 0.42608 -0.10437
-0.18883 0.42456 -0.10674
-0.18786 0.42288 -0.10894
-0.18658 0.42096 -0.11075
-0.18538 0.41892 -0.11241
-0.18437 0.41695 -0.1143
-0.18319 0.41548 -0.11651
-0.18202 0.41403 -0.11873
-0.18094 0.41273 -0.1211
-0.18013 0.4113 -0.12349
-0.17972 0.40984 -0.12597
-0.17942 0.40849 -0.12852
-0.17928 0.40716 -0.13109
-0.17939 0.40597 -0.13373
-0.1792 0.40472 -0.13636
-0.17876 0.40297 -0.13866
-0.1776 0.40079 -0.14022
-0.17656 0.39886 -0.14214
-0.17567 0.39696 -0.14416
-0.17515 0.39499 -0.14622
-0.19503 0.42993 -0.09807
-0.19413 0.42801 -0.10004
-0.19326 0.42637 -0.1023
-0.19204 0.42439 -0.10406
-0.19104 0.4226 -0.10611
-0.18991 0.42082 -0.1081
-0.18877 0.419 -0.11006
-0.18777 0.41713 -0.11203
-0.18681 0.41522 -0.11399
-0.18557 0.41371 -0.11612
-0.18437 0.41222 -0.1183
-0.18325 0.41088 -0.12061
-0.18249 0.40951 -0.12305
-0.18204 0.40803 -0.12552
-0.18195 0.40697 -0.12823
-0.18217 0.40642 -0.13108
-0.18244 0.40589 -0.13399
-0.18227 0.40453 -0.13671
-0.18173 0.40247 -0.13882
-0.18048 0.40035 -0.14043
-0.17943 0.39845 -0.14236
-0.17849 0.39633 -0.1441
-0.17789 0.39417 -0.14594
-0.19891 0.43084 -0.09639
-0.19784 0.42861 -0.09812
-0.19693 0.42675 -0.10016
-0.1959 0.42485 -0.10211
-0.1947 0.42291 -0.10392
-0.19349 0.42091 -0.10563
-0.19233 0.41914 -0.10759
-0.19125 0.41738 -0.10962
-0.19026 0.41552 -0.1116
-0.18933 0.41364 -0.1136
-0.18808 0.41212 -0.11573
-0.18685 0.41059 -0.11786
-0.18571 0.40923 -0.12014
-0.18486 0.40776 -0.1225
-0.18443 0.40628 -0.125
-0.18451 0.40553 -0.12783
-0.18492 0.40525 -0.13073
-0.18512 0.40437 -0.13355
-0.18479 0.40288 -0.1361
-0.18424 0.40092 -0.13821
-0.18325 0.39946 -0.14051
-0.18225 0.39771 -0.14266
-0.18119 0.39534 -0.14402
-0.18059 0.39319 -0.14587
-0.20051 0.42702 -0.09801
-0.20119 0.42866 -0.09569
-0.19964 0.42526 -0.10021
-0.19847 0.42321 -0.10198
-0.19714 0.42115 -0.10353
-0.19599 0.41926 -0.10538
-0.19484 0.4175 -0.10735
-0.19374 0.41571 -0.10934
-0.19274 0.41385 -0.11132
-0.19183 0.412 -0.11335
-0.19057 0.41046 -0.11545
-0.18938 0.40898 -0.11763
-0.18819 0.40757 -0.11986
-0.18744 0.40624 -0.12233
-0.18708 0.40489 -0.12488
-0.18692 0.4038 -0.12758
-0.18693 0.40301 -0.13036
-0.18687 0.40189 -0.13301
-0.18695 0.40079 -0.13569
-0.18698 0.39997 -0.13847
-0.18601 0.39859 -0.14088
-0.18487 0.39641 -0.1425
-0.18383 0.39415 -0.14398
-0.18322 0.39202 -0.14583
-0.20293 0.4251 -0.0977
-0.20349 0.42663 -0.09529
-0.20214 0.42341 -0.09999
-0.20095 0.42141 -0.1018
-0.19967 0.41948 -0.10356
-0.19848 0.41753 -0.10532
-0.19726 0.4157 -0.10719
-0.19619 0.41397 -0.10925
-0.19514 0.41205 -0.11114
-0.19425 0.41023 -0.11319
-0.19298 0.4087 -0.11529
-0.19185 0.4073 -0.11755
-0.19073 0.40597 -0.11988
-0.19002 0.40473 -0.1224
-0.1897 0.40347 -0.12501
-0.18952 0.40233 -0.12767
-0.18939 0.40129 -0.13038
-0.18955 0.40051 -0.13317
-0.18992 0.40042 -0.1361
-0.18999 0.39997 -0.13924
-0.18889 0.39781 -0.14133
-0.18758 0.39533 -0.14236
-0.18643 0.39297 -0.14359
-0.1858 0.39083 -0.14544
-0.20512 0.42302 -0.09714
-0.20573 0.42458 -0.09477
-0.20436 0.42136 -0.09943
-0.20324 0.41944 -0.10132
-0.20214 0.4177 -0.10337
-0.20094 0.41579 -0.10519
-0.19975 0.41402 -0.10714
-0.1986 0.4122 -0.10908
-0.19754 0.41027 -0.11095
-0.19663 0.40844 -0.11299
-0.19547 0.40704 -0.11524
-0.19437 0.4057 -0.11754
-0.19335 0.40453 -0.11998
-0.19266 0.40335 -0.12253
-0.19243 0.4023 -0.12522
-0.1923 0.40129 -0.12793
-0.19226 0.40052 -0.13072
-0.19248 0.4001 -0.13357
-0.19302 0.40016 -0.13667
-0.19283 0.39829 -0.13942
-0.19131 0.39594 -0.14083
-0.18998 0.39367 -0.14203
-0.18889 0.39145 -0.14348
-0.18831 0.38939 -0.14541
-0.20757 0.42139 -0.09633
-0.20819 0.42295 -0.09397
-0.20678 0.41973 -0.09859
-0.2058 0.41796 -0.10067
-0.20472 0.41628 -0.10275
-0.20364 0.41452 -0.10479
-0.20245 0.41277 -0.10676
-0.20128 0.41093 -0.10867
-0.20024 0.40907 -0.11061
-0.19933 0.40723 -0.11263
-0.19812 0.40574 -0.1148
-0.19706 0.40444 -0.11713
-0.1961 0.40342 -0.11966
-0.19543 0.40229 -0.12222
-0.19526 0.40141 -0.12497
-0.19519 0.40064 -0.12775
-0.19517 0.40002 -0.13056
-0.1954 0.39949 -0.13342
-0.19563 0.39839 -0.13632
-0.19448 0.396 -0.13791
-0.19321 0.394 -0.13958
-0.19208 0.39185 -0.14112
-0.19123 0.38982 -0.14297
-0.19072 0.38784 -0.14501
-0.21009 0.42009 -0.09524
-0.21081 0.42172 -0.09297
-0.20928 0.41844 -0.09747
-0.20841 0.41682 -0.09968
-0.20747 0.41531 -0.10193
-0.2065 0.41376 -0.10419
-0.20527 0.41197 -0.10614
-0.20414 0.41021 -0.10812
-0.20311 0.4084 -0.11008
-0.20221 0.40662 -0.11214
-0.20098 0.4051 -0.11426
-0.19987 0.40367 -0.11649
-0.19889 0.40263 -0.11899
-0.19823 0.40153 -0.12156
-0.19799 0.40052 -0.12423
-0.19795 0.39984 -0.12703
-0.19789 0.39909 -0.12982
-0.19821 0.39845 -0.13274
-0.19801 0.39664 -0.13533
-0.19655 0.39431 -0.1367
-0.19508 0.39228 -0.13815
-0.19422 0.39025 -0.14001
-0.19349 0.38832 -0.14201
-0.1929 0.38628 -0.14395
-0.21269 0.41871 -0.09439
-0.21196 0.41719 -0.09673
-0.21106 0.41555 -0.0989
-0.21011 0.41402 -0.10111
-0.20923 0.41259 -0.10343
-0.20815 0.41106 -0.10566
-0.20694 0.40924 -0.10756
-0.20594 0.40751 -0.10958
-0.20511 0.40592 -0.11179
-0.20392 0.40455 -0.114
-0.20281 0.40315 -0.11623
-0.20175 0.40185 -0.11855
-0.20106 0.40071 -0.12108
-0.2008 0.39966 -0.12373
[...]
CELL_DATA 1105
SCALARS brightness_temperature float
LOOKUP_TABLE default
POINT_DATA 603
CELL_DATA 1105
SCALARS emission_angle float
LOOKUP_TABLE default
POINT_DATA 603
CELL_DATA 1105
SCALARS incidence_angle float
LOOKUP_TABLE default
POINT_DATA 603
CELL_DATA 1105
SCALARS phase_angle float
LOOKUP_TABLE default
POINT_DATA 603
CELL_DATA 1105
SCALARS local_solar_time float
LOOKUP_TABLE default
POINT_DATA 603
CELL_DATA 1105
SCALARS local_solar_time_normal_vector float
LOOKUP_TABLE default
CELL_DATA 1105
SCALARS pixel_x float
LOOKUP_TABLE default
POINT_DATA 603
CELL_DATA 1105
SCALARS pixel_y float
LOOKUP_TABLE default
POINT_DATA 603
CELL_DATA 1105
SCALARS longitude float
LOOKUP_TABLE default
POINT_DATA 603
CELL_DATA 1105
SCALARS latitude float
LOOKUP_TABLE default
