# vtk DataFile Version 3.0
SHAPE_sfm_50k_v20200323
ASCII
DATASET POLYDATA
POINTS 586 float
0.11937 0.30043 0.26736
0.11707 0.30158 0.26481
0.11723 0.30079 0.26757
0.11922 0.30123 0.2646
0.1186 0.30133 0.26171
0.1166 0.3022 0.26199
0.11842 0.30224 0.25883
0.11645 0.30328 0.25921
0.11842 0.30383 0.2563
0.11639 0.30476 0.25663
0.11827 0.30563 0.25399
0.1163 0.30666 0.25439
0.11826 0.30742 0.25167
0.11622 0.30838 0.25202
0.11669 0.31004 0.24965
0.11874 0.3091 0.24932
0.11744 0.31173 0.24737
0.11951 0.31081 0.24707
0.11822 0.31353 0.24519
0.11492 0.30201 0.26502
0.11511 0.30126 0.26782
0.11459 0.30305 0.26228
0.11457 0.30439 0.25965
0.1144 0.30575 0.25702
0.1143 0.30765 0.25476
0.11429 0.30948 0.25248
0.11468 0.31106 0.25004
0.11539 0.3127 0.2477
0.11621 0.31455 0.24557
0.11712 0.31638 0.24348
0.11911 0.31532 0.24307
0.11768 0.31834 0.24139
0.11969 0.31729 0.241
0.11996 0.31931 0.23891
0.11791 0.32035 0.23927
0.12038 0.32126 0.23677
0.11843 0.32244 0.23729
0.12062 0.32334 0.23473
0.1187 0.32456 0.23531
0.11279 0.30256 0.26527
0.11295 0.30162 0.26803
0.11252 0.30375 0.26257
0.11253 0.30518 0.25999
0.11251 0.30683 0.25754
0.1123 0.30861 0.2552
0.11234 0.31053 0.25299
0.11274 0.31214 0.25057
0.11343 0.31376 0.24822
0.11419 0.31555 0.24601
0.11508 0.31736 0.24388
0.11571 0.31943 0.2419
0.11601 0.32155 0.2399
0.11664 0.32373 0.23805
0.1167 0.32564 0.23585
0.11883 0.3266 0.23322
0.11651 0.32719 0.23336
0.11882 0.32819 0.23074
0.1166 0.329 0.23105
0.11909 0.33016 0.22857
0.11678 0.33081 0.22873
0.11728 0.33281 0.22663
0.11965 0.33238 0.22673
0.11804 0.33487 0.22469
0.1204 0.33435 0.2247
0.11874 0.33671 0.22251
0.12113 0.33627 0.22259
0.11909 0.33826 0.22005
0.12146 0.33762 0.22
0.12176 0.33895 0.21742
0.11941 0.33968 0.21751
0.11081 0.30211 0.26825
0.1107 0.30325 0.26556
0.11045 0.30449 0.26289
0.11049 0.30599 0.26033
0.11047 0.30767 0.2579
0.11032 0.30958 0.25566
0.11033 0.31148 0.25343
0.11082 0.31322 0.25112
0.11148 0.31483 0.24876
0.11219 0.31657 0.2465
0.11305 0.31836 0.24433
0.1137 0.32047 0.24238
0.11426 0.32284 0.24073
0.11484 0.325 0.23882
0.11474 0.32675 0.23646
0.11454 0.32835 0.23401
0.11456 0.33008 0.23165
0.11461 0.33173 0.22921
0.11502 0.33361 0.22698
0.11572 0.33551 0.22486
0.11636 0.33721 0.22257
0.11672 0.33885 0.22016
0.117 0.3402 0.21758
0.10874 0.30279 0.26865
0.10866 0.30401 0.26599
0.1084 0.30527 0.26333
0.10842 0.30677 0.26077
0.10842 0.30849 0.25836
0.10832 0.31049 0.2562
0.10832 0.3124 0.25396
0.10885 0.31421 0.25171
0.10957 0.3159 0.24942
0.1103 0.31768 0.24721
0.11107 0.31938 0.24493
0.11171 0.32146 0.24294
0.11223 0.32381 0.24125
0.11277 0.32596 0.23933
0.11277 0.32784 0.23708
0.11261 0.32953 0.23468
0.11251 0.33112 0.23221
0.11265 0.33293 0.22991
0.11289 0.33459 0.2275
0.11345 0.33627 0.22516
0.11398 0.33772 0.22267
0.11434 0.33941 0.22029
0.11465 0.34089 0.21778
0.10671 0.30353 0.26912
0.10663 0.30476 0.26646
0.10645 0.30621 0.26389
0.10647 0.30773 0.26135
0.10648 0.30949 0.25897
0.10636 0.31148 0.25679
0.10643 0.31348 0.25464
0.10699 0.31532 0.25242
0.10769 0.31698 0.25011
0.10852 0.31887 0.24801
0.10926 0.32055 0.24572
0.10975 0.32249 0.24357
0.11011 0.32464 0.2416
0.11062 0.32679 0.23967
0.11064 0.32873 0.23748
0.11053 0.33051 0.23514
0.11059 0.33236 0.23287
0.11065 0.33408 0.23049
0.11075 0.33555 0.22795
0.11118 0.33702 0.22544
0.11165 0.33838 0.22288
0.11201 0.34012 0.22053
0.11236 0.34172 0.2181
0.10469 0.30559 0.26711
0.10476 0.30433 0.26978
0.10454 0.30708 0.26457
0.10458 0.30865 0.26206
0.10457 0.31041 0.25968
0.10452 0.31251 0.2576
0.10459 0.31453 0.25546
0.10512 0.31633 0.2532
0.10579 0.31796 0.25086
0.10652 0.31976 0.24865
0.10728 0.32148 0.24639
0.10764 0.32322 0.24405
0.10795 0.32534 0.24202
0.10845 0.3275 0.24009
0.10851 0.32954 0.23798
0.1085 0.3315 0.2358
0.10866 0.33351 0.23364
0.10856 0.33503 0.23111
0.10857 0.33636 0.22849
0.10885 0.33754 0.22581
0.10931 0.33891 0.22323
0.10965 0.34065 0.22088
0.11007 0.34247 0.2186
0.10294 0.30533 0.27048
0.10277 0.30644 0.26774
0.10261 0.30793 0.26519
0.10264 0.30952 0.26268
0.10266 0.31137 0.26036
0.10262 0.31349 0.2583
0.10274 0.31556 0.25621
0.10315 0.31724 0.25384
0.10382 0.31888 0.25149
0.10441 0.32049 0.2491
0.10506 0.32198 0.24664
0.10542 0.32368 0.24425
0.10573 0.32587 0.24228
0.10619 0.32799 0.24029
0.10631 0.33024 0.23839
0.10648 0.33253 0.23652
0.10658 0.33449 0.23428
0.10642 0.33593 0.23168
0.10638 0.3372 0.22902
0.10653 0.33808 0.2262
0.10695 0.3394 0.22357
0.10732 0.34127 0.22131
0.10776 0.34317 0.21909
0.1009 0.30593 0.27087
0.10079 0.30721 0.2682
0.10061 0.30872 0.26564
0.10064 0.31035 0.26315
0.10075 0.31235 0.26094
0.10067 0.31444 0.25886
0.10063 0.31629 0.25656
0.1011 0.31807 0.25426
0.10169 0.31958 0.25181
0.1022 0.32099 0.24927
0.10281 0.32239 0.24674
0.10315 0.3241 0.24433
0.10342 0.32614 0.24218
0.10388 0.32824 0.24014
0.10401 0.33064 0.23839
0.10416 0.33304 0.23667
0.10428 0.33518 0.23457
0.10414 0.33662 0.23196
0.10403 0.33768 0.22919
0.10423 0.33876 0.22645
0.10464 0.34011 0.22384
0.10501 0.34202 0.2216
0.10539 0.34385 0.21929
0.09877 0.30788 0.26869
0.09882 0.30641 0.27127
0.0986 0.30945 0.26618
0.09862 0.31108 0.26367
0.0987 0.31304 0.26143
0.09861 0.31516 0.25937
0.09854 0.31699 0.25704
0.09897 0.31872 0.25469
0.09952 0.32013 0.25217
0.09994 0.32133 0.2495
0.10054 0.32272 0.24693
0.10088 0.3245 0.24456
0.10113 0.3265 0.24237
0.10156 0.32851 0.24021
0.10168 0.33084 0.23837
0.10181 0.33313 0.23651
0.10188 0.33531 0.23448
0.10175 0.33671 0.23186
0.10165 0.33798 0.22919
0.10191 0.33939 0.22659
0.10233 0.34081 0.22403
0.10263 0.34265 0.22172
0.10294 0.34425 0.21923
0.09672 0.3084 0.26931
0.09676 0.30689 0.27185
0.09654 0.30994 0.26677
0.09654 0.31158 0.26428
0.09655 0.31344 0.26194
0.0965 0.31568 0.25996
0.09648 0.31761 0.25772
0.09682 0.31918 0.25523
0.09735 0.32061 0.25272
0.09773 0.32175 0.25
0.09831 0.32313 0.24742
0.09868 0.32497 0.2451
0.09888 0.32685 0.24281
0.09928 0.32885 0.24064
0.09939 0.33115 0.23876
0.09946 0.33324 0.23668
0.09951 0.33512 0.2344
0.09936 0.33665 0.23187
0.09928 0.33828 0.22939
0.09952 0.33966 0.22678
0.09993 0.34105 0.22419
0.10017 0.34257 0.22166
0.10047 0.34422 0.21921
0.09468 0.30744 0.27225
0.09469 0.30909 0.26979
0.09446 0.31057 0.26721
0.09448 0.31229 0.26477
0.0945 0.31419 0.26248
0.09429 0.31605 0.26018
0.09424 0.31793 0.25789
0.09463 0.3197 0.25554
0.0952 0.32124 0.2531
0.0956 0.32247 0.25043
0.09616 0.32382 0.24783
0.0965 0.32559 0.24546
0.09665 0.32739 0.24309
0.09702 0.32935 0.24087
0.09711 0.33162 0.23895
0.09717 0.33376 0.23691
0.09725 0.33576 0.23469
0.09699 0.33694 0.23195
0.09692 0.33861 0.22949
0.09711 0.33978 0.22676
0.0975 0.34104 0.2241
0.09773 0.34249 0.22152
0.09803 0.34401 0.21898
0.09266 0.30825 0.27257
0.09267 0.30988 0.27009
0.09243 0.31137 0.26751
0.09245 0.3131 0.26507
0.09244 0.31499 0.26277
0.09213 0.31662 0.2603
0.09204 0.31846 0.25794
0.09248 0.3204 0.25572
0.09307 0.32202 0.25332
0.09346 0.32325 0.25064
0.09401 0.32458 0.24803
0.09426 0.32614 0.24549
0.09443 0.32801 0.24315
0.09483 0.33012 0.24108
0.09488 0.3323 0.23905
0.09496 0.33454 0.23708
0.09506 0.33663 0.23488
0.0947 0.33761 0.23204
0.09454 0.33892 0.22937
0.09475 0.34037 0.22676
0.09508 0.34101 0.22383
0.09531 0.34242 0.2212
0.09562 0.34385 0.2186
0.09056 0.30879 0.27268
0.09055 0.31045 0.27021
0.09034 0.31203 0.26768
0.09034 0.31375 0.26523
0.09023 0.31532 0.2627
0.0899 0.317 0.26023
0.08986 0.31906 0.25802
0.09031 0.32103 0.25583
0.09093 0.32277 0.25351
0.09134 0.32409 0.25087
0.09181 0.32526 0.24816
0.09201 0.32671 0.24553
0.09219 0.32861 0.2432
0.09259 0.33069 0.24107
0.09264 0.33296 0.23913
0.09268 0.33514 0.23709
0.09279 0.33739 0.235
0.09247 0.33847 0.23216
0.09217 0.33928 0.22931
0.09234 0.34053 0.22659
0.09267 0.34112 0.22365
0.0929 0.34211 0.22082
0.09321 0.3435 0.21818
0.08842 0.30923 0.27267
0.08843 0.31104 0.27029
0.08828 0.31283 0.26791
0.08818 0.31431 0.26531
0.08804 0.31584 0.26274
0.08771 0.31758 0.26028
0.08765 0.31954 0.258
0.08811 0.3216 0.25586
0.08877 0.32348 0.25364
0.08927 0.32502 0.25113
0.0897 0.32615 0.2484
0.08989 0.32759 0.24577
0.08998 0.32924 0.24326
0.09032 0.33112 0.24093
0.09035 0.33321 0.23878
0.09034 0.3356 0.23697
0.09034 0.33799 0.23493
0.09009 0.33881 0.23194
0.08981 0.3396 0.22907
0.08995 0.34063 0.22626
0.09024 0.34116 0.22331
0.09044 0.34233 0.22053
0.09072 0.34361 0.2178
0.08626 0.30964 0.27275
0.0863 0.31153 0.27043
0.08621 0.31354 0.2682
0.08606 0.31494 0.26555
0.08587 0.31639 0.26292
0.08553 0.31813 0.26047
0.08544 0.32002 0.25812
0.08588 0.32201 0.25589
0.08656 0.32402 0.25379
0.08714 0.32583 0.25146
0.08758 0.32694 0.2487
0.08767 0.32812 0.24594
0.08771 0.3296 0.24332
0.08802 0.33122 0.24081
0.08807 0.33301 0.23838
0.08811 0.33516 0.23627
0.08811 0.33721 0.23407
0.08774 0.3387 0.23149
0.08746 0.33996 0.22878
0.08759 0.34101 0.22597
0.08784 0.34161 0.223
0.08808 0.343 0.22032
0.08415 0.31191 0.27073
0.08412 0.31004 0.27309
0.08408 0.31401 0.26859
0.08397 0.31555 0.26603
0.0837 0.31679 0.26329
0.08335 0.3185 0.26082
0.08321 0.32029 0.25838
0.08364 0.32229 0.25615
0.0843 0.3242 0.25396
0.08485 0.32598 0.25162
0.08534 0.32728 0.24897
0.0854 0.32833 0.24615
0.08541 0.3296 0.24342
0.08571 0.33099 0.24077
0.08582 0.33245 0.23814
0.08599 0.33428 0.23574
0.08601 0.33625 0.23348
0.08544 0.33811 0.23119
0.08506 0.33989 0.2288
0.08521 0.34138 0.22618
0.08547 0.34217 0.22326
0.0857 0.34352 0.22055
0.08609 0.34531 0.21815
0.08205 0.31233 0.27123
0.082 0.31041 0.27354
0.08192 0.31425 0.26894
0.08188 0.31613 0.26658
0.08153 0.31706 0.26369
0.08114 0.31868 0.26116
0.08098 0.32047 0.2587
0.08141 0.32251 0.25652
0.08206 0.32439 0.25429
0.08257 0.32589 0.25175
0.08305 0.32725 0.24912
0.08312 0.32836 0.24633
0.08311 0.32943 0.24352
0.08342 0.33062 0.24078
0.08357 0.33183 0.23801
0.08379 0.33343 0.23544
0.08381 0.33543 0.23317
0.08316 0.33745 0.23104
0.08269 0.33959 0.22897
0.08284 0.34145 0.2266
0.08316 0.34264 0.22384
0.08335 0.34391 0.22111
0.08367 0.34551 0.21856
0.07995 0.31264 0.27177
0.0799 0.31074 0.27411
0.07976 0.31435 0.26932
0.07967 0.31614 0.26691
0.07936 0.31726 0.26413
0.07891 0.3187 0.2615
0.07876 0.32053 0.25907
0.07918 0.32258 0.25689
0.07984 0.32462 0.25479
0.0803 0.32573 0.25203
0.0808 0.32686 0.2493
0.08084 0.32811 0.24657
0.08084 0.32909 0.24373
0.08115 0.33015 0.24093
0.08128 0.33131 0.23814
0.0815 0.33277 0.23549
0.08151 0.33476 0.23319
0.08083 0.33698 0.23127
0.08035 0.33922 0.22932
0.08049 0.34141 0.22723
0.08088 0.34293 0.22463
0.08106 0.34422 0.22191
0.08132 0.34562 0.21926
0.07785 0.31268 0.27228
0.07789 0.31108 0.27486
0.07764 0.3145 0.26989
0.07747 0.31586 0.26722
0.07716 0.31721 0.26456
0.07671 0.31873 0.26198
0.07653 0.32043 0.25947
0.07696 0.32256 0.25734
0.07761 0.32463 0.25528
0.07809 0.32604 0.25265
0.07857 0.32641 0.24967
0.07863 0.3275 0.24685
0.07861 0.32854 0.24403
0.07888 0.32973 0.24129
0.07898 0.33092 0.23851
0.07917 0.33242 0.23589
0.07919 0.33444 0.23364
0.07852 0.33657 0.23163
0.07803 0.33863 0.2295
0.07813 0.34081 0.22743
0.07854 0.34294 0.22532
0.07874 0.34436 0.22266
0.07896 0.34562 0.21993
0.07576 0.31241 0.27271
0.07551 0.31418 0.27024
0.07532 0.31586 0.26776
0.07499 0.31726 0.26512
0.0745 0.31875 0.26254
0.0743 0.3204 0.26
0.07472 0.32237 0.25772
0.07537 0.32436 0.25558
0.07583 0.32601 0.25307
0.0763 0.32623 0.25005
0.07637 0.32703 0.24712
0.07633 0.32818 0.24432
0.07659 0.32939 0.24157
0.07667 0.33077 0.23888
0.07685 0.33244 0.23636
0.0769 0.33459 0.23423
0.07616 0.33631 0.23187
0.07569 0.3381 0.22949
0.07577 0.34029 0.22742
0.07613 0.34257 0.22548
0.07634 0.34446 0.22313
0.07655 0.34557 0.22033
0.07589 0.31129 0.27558
0.0736 0.31219 0.27283
0.07333 0.3138 0.27023
0.07312 0.31553 0.26776
0.07279 0.31728 0.26532
0.07235 0.31923 0.26306
0.0721 0.32078 0.26048
0.07245 0.32247 0.25799
0.07309 0.32426 0.25567
0.07356 0.32574 0.25309
0.07399 0.32621 0.25013
0.07404 0.32695 0.24718
0.074 0.32815 0.24439
0.07426 0.32944 0.24167
0.07434 0.33091 0.23901
0.07455 0.33276 0.23662
0.07454 0.33487 0.23445
0.07379 0.33622 0.23183
0.07328 0.33801 0.22944
0.07336 0.34019 0.22734
0.07371 0.34242 0.22534
0.07386 0.34444 0.22307
0.07412 0.3454 0.22016
0.07376 0.31149 0.27581
0.07142 0.31195 0.27273
0.07111 0.31362 0.27017
0.07089 0.31533 0.26767
0.07056 0.31724 0.26534
0.0701 0.31926 0.26314
0.06991 0.32115 0.2608
0.07023 0.32287 0.25834
0.07081 0.32443 0.25585
0.07128 0.32578 0.2532
0.07171 0.32657 0.25033
0.07173 0.32726 0.24738
0.07167 0.32828 0.24452
0.07193 0.32953 0.24177
0.07201 0.3309 0.23905
0.07221 0.33263 0.23655
0.07218 0.33452 0.2342
0.0714 0.33618 0.2318
0.07088 0.3381 0.22952
0.07094 0.34018 0.22733
0.07132 0.3421 0.22502
0.07149 0.34393 0.22263
0.07164 0.34551 0.22007
0.0716 0.31125 0.27572
0.06955 0.31054 0.27522
0.0692 0.31201 0.27254
0.06889 0.31378 0.27008
0.06865 0.31548 0.26757
0.06831 0.31742 0.26527
0.06785 0.31939 0.26301
0.06767 0.32141 0.26076
0.06801 0.32328 0.25842
0.06859 0.32491 0.25598
0.06906 0.32631 0.25334
0.06946 0.32706 0.25045
0.06947 0.32779 0.24751
0.06937 0.32869 0.24461
0.0696 0.3298 0.24178
0.06965 0.33107 0.23901
0.06985 0.33272 0.23646
0.06981 0.33462 0.23409
0.06901 0.33638 0.23176
0.06849 0.33831 0.2295
0.06854 0.34016 0.22711
0.06892 0.34189 0.22466
0.06907 0.34377 0.22229
0.06918 0.34584 0.22007
0.06735 0.31042 0.27482
0.067 0.31229 0.27242
0.0667 0.31408 0.26999
0.06643 0.31582 0.26751
0.06607 0.31775 0.2652
0.0656 0.31967 0.2629
0.06542 0.32165 0.26061
0.06578 0.32365 0.25836
0.06638 0.32543 0.25601
0.06685 0.32688 0.25341
0.06726 0.3277 0.25053
0.06728 0.32854 0.24762
0.06716 0.32946 0.24472
0.06735 0.3305 0.24187
0.06736 0.3317 0.23907
0.06752 0.33323 0.23644
0.06746 0.33498 0.23396
0.06667 0.33686 0.23173
0.06611 0.33866 0.22937
0.06614 0.34033 0.22684
0.0665 0.34206 0.22438
0.06665 0.34382 0.22192
0.06681 0.34549 0.21939
0.06515 0.3107 0.27472
0.06481 0.31247 0.27227
0.0645 0.31436 0.26991
0.06423 0.31618 0.26748
0.06511 0.32851 0.25069
0.06515 0.3294 0.24779
0.06505 0.33041 0.24493
0.0652 0.33139 0.24205
0.0652 0.33262 0.23926
0.06532 0.33407 0.23659
0.06518 0.33568 0.23402
POLYGONS 1072 4288
3 0 1 2
3 0 3 1
3 3 4 1
3 1 4 5
3 4 6 5
3 5 6 7
3 6 8 7
3 7 8 9
3 8 10 9
3 9 10 11
3 10 12 11
3 11 12 13
3 12 14 13
3 12 15 14
3 15 16 14
3 15 17 16
3 17 18 16
3 2 19 20
3 2 1 19
3 1 5 19
3 19 5 21
3 5 7 21
3 21 7 22
3 7 9 22
3 22 9 23
3 9 11 23
3 23 11 24
3 11 13 24
3 24 13 25
3 13 26 25
3 13 14 26
3 14 27 26
3 14 16 27
3 16 28 27
3 16 18 28
3 18 29 28
3 18 30 29
3 30 31 29
3 30 32 31
3 32 33 31
3 31 33 34
3 33 35 34
3 34 35 36
3 36 37 38
3 20 39 40
3 20 19 39
3 19 21 39
3 39 21 41
3 21 22 41
3 41 22 42
3 22 23 42
3 42 23 43
3 23 24 43
3 43 24 44
3 24 25 44
3 44 25 45
3 25 46 45
3 25 26 46
3 26 47 46
3 26 27 47
3 27 48 47
3 27 28 48
3 28 49 48
3 28 29 49
3 29 50 49
3 29 31 50
3 31 34 50
3 50 34 51
3 34 52 51
3 34 36 52
3 36 38 52
3 52 38 53
3 38 54 53
3 53 54 55
3 54 56 55
3 55 56 57
3 56 58 57
3 57 58 59
3 58 60 59
3 58 61 60
3 61 62 60
3 61 63 62
3 63 64 62
3 63 65 64
3 65 66 64
3 65 67 66
3 67 68 66
3 66 68 69
3 40 39 70
3 70 39 71
3 39 41 71
3 71 41 72
3 41 42 72
3 72 42 73
3 42 43 73
3 73 43 74
3 43 44 74
3 74 44 75
3 44 45 75
3 75 45 76
3 45 77 76
3 45 46 77
3 46 78 77
3 46 47 78
3 47 79 78
3 47 48 79
3 48 80 79
3 48 49 80
3 49 81 80
3 49 50 81
3 50 51 81
3 81 51 82
3 51 83 82
3 51 52 83
3 52 53 83
3 83 53 84
3 53 55 84
3 84 55 85
3 55 57 85
3 85 57 86
3 57 59 86
3 86 59 87
3 59 88 87
3 59 60 88
3 60 89 88
3 60 62 89
3 62 90 89
3 62 64 90
3 64 91 90
3 64 66 91
3 66 92 91
3 66 69 92
3 70 71 93
3 93 71 94
3 71 72 94
3 94 72 95
3 72 73 95
3 95 73 96
3 73 74 96
3 96 74 97
3 74 75 97
3 97 75 98
3 75 76 98
3 98 76 99
3 76 100 99
3 76 77 100
3 77 101 100
3 77 78 101
3 78 102 101
3 78 79 102
3 79 103 102
3 79 80 103
3 80 104 103
3 80 81 104
3 81 105 104
3 81 82 105
3 82 106 105
3 82 83 106
3 83 84 106
3 106 84 107
3 84 85 107
3 107 85 108
3 85 86 108
3 108 86 109
3 86 87 109
3 109 87 110
3 87 111 110
3 87 88 111
3 88 112 111
3 88 89 112
3 89 113 112
3 89 90 113
3 90 114 113
3 90 91 114
3 91 115 114
3 91 92 115
3 93 94 116
3 116 94 117
3 94 95 117
3 117 95 118
3 95 96 118
3 118 96 119
3 96 97 119
3 119 97 120
3 97 98 120
3 120 98 121
3 98 99 121
3 121 99 122
3 99 123 122
3 99 100 123
3 100 124 123
3 100 101 124
3 101 125 124
3 101 102 125
3 102 126 125
3 102 103 126
3 103 127 126
3 103 104 127
3 104 128 127
3 104 105 128
3 105 129 128
3 105 106 129
3 106 107 129
3 129 107 130
3 107 108 130
3 130 108 131
3 108 109 131
3 131 109 132
3 109 110 132
3 132 110 133
3 110 111 133
3 133 111 134
3 111 135 134
3 111 112 135
3 112 136 135
3 112 113 136
3 113 137 136
3 113 114 137
3 114 138 137
3 114 115 138
3 116 139 140
3 116 117 139
3 117 118 139
3 139 118 141
3 118 142 141
3 118 119 142
3 119 120 142
3 142 120 143
3 120 121 143
3 143 121 144
3 121 122 144
3 144 122 145
3 122 146 145
3 122 123 146
3 123 147 146
3 123 124 147
3 124 148 147
3 124 125 148
3 125 149 148
3 125 126 149
3 126 150 149
3 126 127 150
3 127 151 150
3 127 128 151
3 128 152 151
3 128 129 152
3 129 130 152
3 152 130 153
3 130 131 153
3 153 131 154
3 131 132 154
3 154 132 155
3 132 133 155
3 155 133 156
3 133 157 156
3 133 134 157
3 134 158 157
3 134 135 158
3 135 159 158
3 135 136 159
3 136 160 159
3 136 137 160
3 137 161 160
3 137 138 161
3 140 139 162
3 162 139 163
3 139 141 163
3 163 141 164
3 141 165 164
3 141 142 165
3 142 143 165
3 165 143 166
3 143 144 166
3 166 144 167
3 144 145 167
3 167 145 168
3 145 169 168
3 145 146 169
3 146 170 169
3 146 147 170
3 147 171 170
3 147 148 171
3 148 172 171
3 148 149 172
3 149 173 172
3 149 150 173
3 150 174 173
3 150 151 174
3 151 175 174
3 151 152 175
3 152 153 175
3 175 153 176
3 153 154 176
3 176 154 177
3 154 178 177
3 154 155 178
3 155 156 178
3 178 156 179
3 156 180 179
3 156 157 180
3 157 181 180
3 157 158 181
3 158 182 181
3 158 159 182
3 159 183 182
3 159 160 183
3 160 184 183
3 160 161 184
3 162 163 185
3 185 163 186
3 163 164 186
3 186 164 187
3 164 165 187
3 187 165 188
3 165 166 188
3 188 166 189
3 166 167 189
3 189 167 190
3 167 168 190
3 190 168 191
3 168 192 191
3 168 169 192
3 169 193 192
3 169 170 193
3 170 194 193
3 170 171 194
3 171 195 194
3 171 172 195
3 172 196 195
3 172 173 196
3 173 174 196
3 196 174 197
3 174 175 197
3 197 175 198
3 175 176 198
3 198 176 199
3 176 177 199
3 199 177 200
3 177 178 200
3 200 178 201
3 178 179 201
3 201 179 202
3 179 180 202
3 202 180 203
3 180 204 203
3 180 181 204
3 181 205 204
3 181 182 205
3 182 206 205
3 182 183 206
3 183 207 206
3 183 184 207
3 185 208 209
3 185 186 208
3 186 187 208
3 208 187 210
3 187 211 210
3 187 188 211
3 188 189 211
3 211 189 212
3 189 190 212
3 212 190 213
3 190 191 213
3 213 191 214
3 191 215 214
3 191 192 215
3 192 216 215
3 192 193 216
3 193 217 216
3 193 194 217
3 194 218 217
3 194 195 218
3 195 219 218
3 195 196 219
3 196 220 219
3 196 197 220
3 197 221 220
3 197 198 221
3 198 199 221
3 221 199 222
3 199 200 222
3 222 200 223
3 200 201 223
3 223 201 224
3 201 202 224
3 224 202 225
3 202 203 225
3 225 203 226
3 203 227 226
3 203 204 227
3 204 228 227
3 204 205 228
3 205 206 228
3 228 206 229
3 206 207 229
3 229 207 230
3 209 231 232
3 209 208 231
3 208 233 231
3 208 210 233
3 210 234 233
3 210 211 234
3 211 235 234
3 211 212 235
3 212 236 235
3 212 213 236
3 213 237 236
3 213 214 237
3 214 238 237
3 214 215 238
3 215 239 238
3 215 216 239
3 216 240 239
3 216 217 240
3 217 241 240
3 217 218 241
3 218 242 241
3 218 219 242
3 219 243 242
3 219 220 243
3 220 244 243
3 220 221 244
3 221 245 244
3 221 222 245
3 222 246 245
3 222 223 246
3 223 247 246
3 223 224 247
3 224 225 247
3 247 225 248
3 225 226 248
3 248 226 249
3 226 250 249
3 226 227 250
3 227 251 250
3 227 228 251
3 228 252 251
3 228 229 252
3 229 253 252
3 229 230 253
3 232 231 254
3 254 231 255
3 231 233 255
3 255 233 256
3 233 234 256
3 256 234 257
3 234 235 257
3 257 235 258
3 235 236 258
3 258 236 259
3 236 237 259
3 259 237 260
3 237 261 260
3 237 238 261
3 238 262 261
3 238 239 262
3 239 263 262
3 239 240 263
3 240 264 263
3 240 241 264
3 241 265 264
3 241 242 265
3 242 266 265
3 242 243 266
3 243 267 266
3 243 244 267
3 244 245 267
3 267 245 268
3 245 246 268
3 268 246 269
3 246 247 269
3 269 247 270
3 247 248 270
3 270 248 271
3 248 249 271
3 271 249 272
3 249 273 272
3 249 250 273
3 250 274 273
3 250 251 274
3 251 275 274
3 251 252 275
3 252 276 275
3 252 253 276
3 254 255 277
3 277 255 278
3 255 256 278
3 278 256 279
3 256 257 279
3 279 257 280
3 257 258 280
3 280 258 281
3 258 259 281
3 281 259 282
3 259 260 282
3 282 260 283
3 260 284 283
3 260 261 284
3 261 285 284
3 261 262 285
3 262 286 285
3 262 263 286
3 263 287 286
3 263 264 287
3 264 265 287
3 287 265 288
3 265 266 288
3 288 266 289
3 266 267 289
3 289 267 290
3 267 268 290
3 290 268 291
3 268 269 291
3 291 269 292
3 269 270 292
3 292 270 293
3 270 271 293
3 293 271 294
3 271 272 294
3 294 272 295
3 272 273 295
3 295 273 296
3 273 297 296
3 273 274 297
3 274 275 297
3 297 275 298
3 275 299 298
3 275 276 299
3 277 278 300
3 300 278 301
3 278 279 301
3 301 279 302
3 279 280 302
3 302 280 303
3 280 281 303
3 303 281 304
3 281 282 304
3 304 282 305
3 282 283 305
3 305 283 306
3 283 284 306
3 306 284 307
3 284 308 307
3 284 285 308
3 285 309 308
3 285 286 309
3 286 310 309
3 286 287 310
3 287 288 310
3 310 288 311
3 288 289 311
3 311 289 312
3 289 290 312
3 312 290 313
3 290 291 313
3 313 291 314
3 291 292 314
3 314 292 315
3 292 293 315
3 315 293 316
3 293 294 316
3 316 294 317
3 294 295 317
3 317 295 318
3 295 296 318
3 318 296 319
3 296 320 319
3 296 297 320
3 297 321 320
3 297 298 321
3 298 322 321
3 298 299 322
3 300 301 323
3 323 301 324
3 301 302 324
3 324 302 325
3 302 303 325
3 325 303 326
3 303 304 326
3 326 304 327
3 304 305 327
3 327 305 328
3 305 306 328
3 328 306 329
3 306 307 329
3 329 307 330
3 307 331 330
3 307 308 331
3 308 332 331
3 308 309 332
3 309 333 332
3 309 310 333
3 310 311 333
3 333 311 334
3 311 312 334
3 334 312 335
3 312 313 335
3 335 313 336
3 313 314 336
3 336 314 337
3 314 315 337
3 337 315 338
3 315 316 338
3 338 316 339
3 316 317 339
3 339 317 340
3 317 318 340
3 340 318 341
3 318 319 341
3 341 319 342
3 319 343 342
3 319 320 343
3 320 321 343
3 343 321 344
3 321 322 344
3 344 322 345
3 323 324 346
3 346 324 347
3 324 325 347
3 347 325 348
3 325 326 348
3 348 326 349
3 326 327 349
3 349 327 350
3 327 328 350
3 350 328 351
3 328 329 351
3 351 329 352
3 329 353 352
3 329 330 353
3 330 354 353
3 330 331 354
3 331 355 354
3 331 332 355
3 332 356 355
3 332 333 356
3 333 334 356
3 356 334 357
3 334 335 357
3 357 335 358
3 335 359 358
3 335 336 359
3 336 337 359
3 359 337 360
3 337 338 360
3 360 338 361
3 338 339 361
3 361 339 362
3 339 340 362
3 362 340 363
3 340 341 363
3 363 341 364
3 341 342 364
3 364 342 365
3 342 343 365
3 365 343 366
3 343 344 366
3 366 344 367
3 344 345 367
3 346 368 369
3 346 347 368
3 347 348 368
3 368 348 370
3 348 349 370
3 370 349 371
3 349 350 371
3 371 350 372
3 350 351 372
3 372 351 373
3 351 352 373
3 373 352 374
3 352 375 374
3 352 353 375
3 353 376 375
3 353 354 376
3 354 377 376
3 354 355 377
3 355 378 377
3 355 356 378
3 356 379 378
3 356 357 379
3 357 380 379
3 357 358 380
3 358 381 380
3 358 359 381
3 359 382 381
3 359 360 382
3 360 383 382
3 360 361 383
3 361 384 383
3 361 362 384
3 362 363 384
3 384 363 385
3 363 364 385
3 385 364 386
3 364 387 386
3 364 365 387
3 365 388 387
3 365 366 388
3 366 389 388
3 366 367 389
3 367 390 389
3 369 391 392
3 369 368 391
3 368 393 391
3 368 370 393
3 370 394 393
3 370 371 394
3 371 395 394
3 371 372 395
3 372 373 395
3 395 373 396
3 373 397 396
3 373 374 397
3 374 398 397
3 374 375 398
3 375 399 398
3 375 376 399
3 376 400 399
3 376 377 400
3 377 401 400
3 377 378 401
3 378 402 401
3 378 379 402
3 379 403 402
3 379 380 403
3 380 404 403
3 380 381 404
3 381 405 404
3 381 382 405
3 382 406 405
3 382 383 406
3 383 407 406
3 383 384 407
3 384 385 407
3 407 385 408
3 385 386 408
3 408 386 409
3 386 410 409
3 386 387 410
3 387 411 410
3 387 388 411
3 388 412 411
3 388 389 412
3 389 413 412
3 389 390 413
3 392 414 415
3 392 391 414
3 391 416 414
3 391 393 416
3 393 417 416
3 393 394 417
3 394 418 417
3 394 395 418
3 395 396 418
3 418 396 419
3 396 420 419
3 396 397 420
3 397 421 420
3 397 398 421
3 398 422 421
3 398 399 422
3 399 423 422
3 399 400 423
3 400 424 423
3 400 401 424
3 401 425 424
3 401 402 425
3 402 426 425
3 402 403 426
3 403 427 426
3 403 404 427
3 404 428 427
3 404 405 428
3 405 429 428
3 405 406 429
3 406 430 429
3 406 407 430
3 407 408 430
3 430 408 431
3 408 432 431
3 408 409 432
3 409 433 432
3 409 410 433
3 410 434 433
3 410 411 434
3 411 435 434
3 411 412 435
3 412 436 435
3 412 413 436
3 415 437 438
3 415 414 437
3 414 439 437
3 414 416 439
3 416 440 439
3 416 417 440
3 417 441 440
3 417 418 441
3 418 442 441
3 418 419 442
3 419 443 442
3 419 420 443
3 420 444 443
3 420 421 444
3 421 445 444
3 421 422 445
3 422 446 445
3 422 423 446
3 423 447 446
3 423 424 447
3 424 448 447
3 424 425 448
3 425 449 448
3 425 426 449
3 426 450 449
3 426 427 450
3 427 451 450
3 427 428 451
3 428 452 451
3 428 429 452
3 429 453 452
3 429 430 453
3 430 431 453
3 453 431 454
3 431 455 454
3 431 432 455
3 432 456 455
3 432 433 456
3 433 457 456
3 433 434 457
3 434 458 457
3 434 435 458
3 435 459 458
3 435 436 459
3 438 437 460
3 437 461 460
3 437 439 461
3 439 462 461
3 439 440 462
3 440 463 462
3 440 441 463
3 441 464 463
3 441 442 464
3 442 465 464
3 442 443 465
3 443 466 465
3 443 444 466
3 444 467 466
3 444 445 467
3 445 468 467
3 445 446 468
3 446 469 468
3 446 447 469
3 447 470 469
3 447 448 470
3 448 471 470
3 448 449 471
3 449 472 471
3 449 450 472
3 450 473 472
3 450 451 473
3 451 474 473
3 451 452 474
3 452 475 474
3 452 453 475
3 453 454 475
3 475 454 476
3 454 455 476
3 476 455 477
3 455 478 477
3 455 456 478
3 456 479 478
3 456 457 479
3 457 480 479
3 457 458 480
3 458 481 480
3 458 459 481
3 482 460 483
3 460 484 483
3 460 461 484
3 461 485 484
3 461 462 485
3 462 463 485
3 485 463 486
3 463 464 486
3 486 464 487
3 464 488 487
3 464 465 488
3 465 489 488
3 465 466 489
3 466 490 489
3 466 467 490
3 467 491 490
3 467 468 491
3 468 492 491
3 468 469 492
3 469 493 492
3 469 470 493
3 470 494 493
3 470 471 494
3 471 495 494
3 471 472 495
3 472 496 495
3 472 473 496
3 473 497 496
3 473 474 497
3 474 475 497
3 497 475 498
3 475 476 498
3 498 476 499
3 476 477 499
3 499 477 500
3 477 478 500
3 500 478 501
3 478 502 501
3 478 479 502
3 479 503 502
3 479 480 503
3 480 504 503
3 480 481 504
3 505 483 506
3 483 484 506
3 506 484 507
3 484 485 507
3 507 485 508
3 485 486 508
3 508 486 509
3 486 487 509
3 509 487 510
3 487 488 510
3 510 488 511
3 488 512 511
3 488 489 512
3 489 513 512
3 489 490 513
3 490 514 513
3 490 491 514
3 491 515 514
3 491 492 515
3 492 516 515
3 492 493 516
3 493 517 516
3 493 494 517
3 494 518 517
3 494 495 518
3 495 519 518
3 495 496 519
3 496 520 519
3 496 497 520
3 497 498 520
3 520 498 521
3 498 499 521
3 521 499 522
3 499 500 522
3 522 500 523
3 500 501 523
3 523 501 524
3 501 525 524
3 501 502 525
3 502 503 525
3 525 503 526
3 503 527 526
3 503 504 527
3 528 506 529
3 529 506 530
3 506 507 530
3 530 507 531
3 507 508 531
3 531 508 532
3 508 509 532
3 532 509 533
3 509 510 533
3 533 510 534
3 510 511 534
3 534 511 535
3 511 536 535
3 511 512 536
3 512 537 536
3 512 513 537
3 513 538 537
3 513 514 538
3 514 539 538
3 514 515 539
3 515 516 539
3 539 516 540
3 516 517 540
3 540 517 541
3 517 542 541
3 517 518 542
3 518 519 542
3 542 519 543
3 519 544 543
3 519 520 544
3 520 521 544
3 544 521 545
3 521 522 545
3 545 522 546
3 522 523 546
3 546 523 547
3 523 524 547
3 547 524 548
3 524 549 548
3 524 525 549
3 525 526 549
3 549 526 550
3 526 527 550
3 550 527 551
3 529 530 552
3 552 530 553
3 530 531 553
3 553 531 554
3 531 532 554
3 554 532 555
3 532 533 555
3 555 533 556
3 533 534 556
3 556 534 557
3 534 535 557
3 557 535 558
3 535 536 558
3 558 536 559
3 536 560 559
3 536 537 560
3 537 561 560
3 537 538 561
3 538 562 561
3 538 539 562
3 539 540 562
3 562 540 563
3 540 541 563
3 563 541 564
3 541 542 564
3 564 542 565
3 542 543 565
3 565 543 566
3 543 544 566
3 566 544 567
3 544 545 567
3 567 545 568
3 545 546 568
3 568 546 569
3 546 547 569
3 569 547 570
3 547 548 570
3 570 548 571
3 548 549 571
3 571 549 572
3 549 550 572
3 572 550 573
3 550 551 573
3 573 551 574
3 552 553 575
3 575 553 576
3 553 554 576
3 576 554 577
3 554 555 577
3 577 555 578
3 555 556 578
3 561 562 579
3 562 563 579
3 579 563 580
3 563 564 580
3 580 564 581
3 564 565 581
3 581 565 582
3 565 566 582
3 582 566 583
3 566 567 583
3 583 567 584
3 567 568 584
3 584 568 585
3 568 569 585
CELL_DATA 1072
SCALARS brightness_temperature float
LOOKUP_TABLE default
POINT_DATA 586
CELL_DATA 1072
SCALARS emission_angle float
LOOKUP_TABLE default
POINT_DATA 586
CELL_DATA 1072
SCALARS incidence_angle float
LOOKUP_TABLE default
POINT_DATA 586
CELL_DATA 1072
SCALARS phase_angle float
LOOKUP_TABLE default
POINT_DATA 586
CELL_DATA 1072
SCALARS local_solar_time float
LOOKUP_TABLE default
POINT_DATA 586
CELL_DATA 1072
SCALARS local_solar_time_normal_vector float
LOOKUP_TABLE default
CELL_DATA 1072
SCALARS pixel_x float
LOOKUP_TABLE default
POINT_DATA 586
CELL_DATA 1072
SCALARS pixel_y float
LOOKUP_TABLE default
POINT_DATA 586
CELL_DATA 1072
SCALARS longitude float
LOOKUP_TABLE default
POINT_DATA 586
CELL_DATA 1072
SCALARS latitude float
LOOKUP_TABLE default
