# vtk DataFile Version 3.0
SHAPE_sfm_50k_v20200323
ASCII
DATASET POLYDATA
POINTS 21918 float
0.15604 -0.19523 0.3779
0.15769 -0.19709 0.37609
0.15811 -0.19444 0.37644
0.15882 -0.19192 0.37717
0.16058 -0.19375 0.37577
0.16128 -0.19136 0.37667
0.15989 -0.19622 0.37493
0.16271 -0.18634 0.37781
0.16419 -0.18809 0.37654
0.16503 -0.18557 0.37716
0.16193 -0.18887 0.37729
0.16361 -0.19065 0.3761
0.163 -0.19307 0.37536
0.16223 -0.19536 0.37427
0.16151 -0.19784 0.37343
0.16601 -0.18325 0.3781
0.16743 -0.18495 0.37668
0.16845 -0.18271 0.37771
0.16649 -0.18736 0.37583
0.16587 -0.18992 0.37534
0.16531 -0.19239 0.37472
0.16457 -0.19465 0.37364
0.16372 -0.19695 0.37253
0.16931 -0.18038 0.37855
0.17082 -0.18197 0.37734
0.17166 -0.17961 0.3781
0.1698 -0.1842 0.37633
0.16876 -0.18644 0.37525
0.16808 -0.18897 0.37464
0.1675 -0.19145 0.37398
0.16683 -0.19377 0.373
0.16593 -0.19594 0.37177
0.17259 -0.17444 0.37894
0.17443 -0.17605 0.37777
0.17489 -0.17351 0.37843
0.17218 -0.17702 0.3784
0.17386 -0.17861 0.37739
0.17309 -0.18105 0.37683
0.17204 -0.18322 0.37577
0.17099 -0.18543 0.3747
0.1701 -0.18778 0.37375
0.16948 -0.19027 0.37305
0.16897 -0.19273 0.37227
0.16817 -0.19497 0.37116
0.16723 -0.19718 0.37005
0.17498 -0.17092 0.37897
0.17715 -0.17253 0.3779
0.17673 -0.17509 0.37738
0.1761 -0.1776 0.37682
0.17533 -0.18004 0.37626
0.17427 -0.18219 0.37518
0.17316 -0.18432 0.37406
0.17217 -0.18654 0.37297
0.17132 -0.18889 0.372
0.17071 -0.19132 0.37113
0.17022 -0.19379 0.37035
0.16948 -0.19615 0.36948
0.16867 -0.19836 0.36835
0.1774 -0.16739 0.3792
0.17725 -0.16993 0.37841
0.17961 -0.16905 0.378
0.17932 -0.17152 0.37708
0.17887 -0.17409 0.37654
0.17831 -0.17665 0.37614
0.17764 -0.17918 0.37576
0.17665 -0.1814 0.37477
0.1754 -0.1833 0.37341
0.17432 -0.18539 0.37218
0.17334 -0.18761 0.371
0.17268 -0.19004 0.37004
0.17218 -0.19255 0.36928
0.17163 -0.19505 0.36873
0.17097 -0.19738 0.36782
0.17979 -0.16656 0.37885
0.18201 -0.16831 0.37772
0.18221 -0.16584 0.3786
0.18164 -0.17064 0.37654
0.18102 -0.17308 0.37568
0.18039 -0.17562 0.37519
0.17973 -0.17814 0.37483
0.17896 -0.18057 0.37422
0.17773 -0.18248 0.37287
0.17662 -0.18447 0.37154
0.17564 -0.18663 0.37032
0.17486 -0.18894 0.36915
0.17441 -0.19152 0.36854
0.17382 -0.19402 0.36797
0.17325 -0.19645 0.36728
0.18268 -0.16343 0.37952
0.1846 -0.16519 0.37816
0.18512 -0.16287 0.37925
0.18433 -0.16757 0.37712
0.18392 -0.16985 0.37589
0.18324 -0.1722 0.37489
0.18255 -0.17467 0.37427
0.18176 -0.17712 0.37373
0.18106 -0.17958 0.37326
0.18006 -0.18175 0.37225
0.17903 -0.18379 0.37102
0.17803 -0.18587 0.36975
0.17724 -0.18813 0.36855
0.1767 -0.19064 0.3678
0.17607 -0.19311 0.36718
0.17553 -0.19559 0.36663
0.17503 -0.19793 0.36564
0.18586 -0.16056 0.38018
0.18747 -0.16207 0.37884
0.18688 -0.16428 0.37762
0.18646 -0.16649 0.37631
0.18603 -0.16875 0.37508
0.18539 -0.17114 0.37418
0.18464 -0.17356 0.37348
0.18389 -0.17601 0.37298
0.18307 -0.17838 0.37232
0.18227 -0.18075 0.37166
0.18138 -0.18297 0.3707
0.18041 -0.18504 0.36948
0.17963 -0.18726 0.3683
0.17901 -0.18965 0.36734
0.17834 -0.19208 0.36667
0.1777 -0.19448 0.36593
0.17725 -0.19688 0.36508
0.18893 -0.1575 0.38079
0.19046 -0.15883 0.37925
0.19117 -0.15651 0.38018
0.18825 -0.15984 0.3799
0.1897 -0.16108 0.37823
0.18909 -0.16326 0.37697
0.1887 -0.16548 0.37568
0.18818 -0.16765 0.37434
0.18745 -0.16995 0.37332
0.18669 -0.17238 0.37263
0.18589 -0.1748 0.37208
0.18514 -0.17722 0.37151
0.18434 -0.1796 0.37084
0.18361 -0.18198 0.37018
0.18277 -0.18421 0.36924
0.18198 -0.18636 0.36802
0.18134 -0.1887 0.36699
0.18063 -0.19108 0.36619
0.17996 -0.19344 0.36537
0.17952 -0.19586 0.36455
0.17897 -0.19823 0.36365
0.1919 -0.1543 0.38131
0.19346 -0.15575 0.37942
0.19424 -0.1536 0.38065
0.19266 -0.15796 0.3783
0.19189 -0.16021 0.37728
0.19132 -0.16243 0.37608
0.19093 -0.16466 0.37481
0.19044 -0.16685 0.3735
0.18961 -0.16905 0.37234
0.18871 -0.17137 0.37147
0.18788 -0.1738 0.37087
0.18721 -0.17628 0.37041
0.18649 -0.17871 0.36987
0.18579 -0.18112 0.36926
0.18511 -0.18352 0.36865
0.18436 -0.18573 0.36754
0.18373 -0.18806 0.36651
0.18303 -0.19041 0.36565
0.18236 -0.19276 0.3648
0.18187 -0.19514 0.36388
0.18132 -0.19752 0.363
0.1948 -0.15124 0.38157
0.19651 -0.15306 0.37964
0.19715 -0.15081 0.38077
0.19578 -0.15527 0.37849
0.19502 -0.15751 0.37741
0.19423 -0.15973 0.37634
0.19363 -0.16193 0.37513
0.19318 -0.1641 0.37377
0.19268 -0.16628 0.37245
0.19186 -0.16848 0.3713
0.19096 -0.17079 0.37038
0.19013 -0.17322 0.36976
0.18943 -0.1757 0.3693
0.18879 -0.17819 0.36892
0.18809 -0.1806 0.36833
0.1874 -0.183 0.36774
0.18673 -0.1853 0.36678
0.18609 -0.18762 0.36576
0.1854 -0.19002 0.36501
0.18476 -0.19237 0.36416
0.18429 -0.19475 0.36322
0.18373 -0.19711 0.36231
0.18326 -0.19947 0.36141
0.19801 -0.14869 0.382
0.19938 -0.15033 0.37969
0.20021 -0.14818 0.38087
0.19878 -0.15261 0.37859
0.19812 -0.1549 0.37756
0.19741 -0.1572 0.3766
0.19664 -0.15942 0.37558
0.19599 -0.16153 0.37426
0.19552 -0.16366 0.37286
0.195 -0.16584 0.37152
0.1942 -0.16807 0.3704
0.19332 -0.17038 0.36951
0.19247 -0.17278 0.36887
0.19173 -0.17523 0.36835
0.19106 -0.17771 0.36793
0.19041 -0.18015 0.36746
0.18969 -0.18253 0.36681
0.18903 -0.18484 0.36587
0.18844 -0.1872 0.36498
0.18771 -0.18954 0.36411
0.18708 -0.19192 0.36334
0.18664 -0.19433 0.36249
0.18612 -0.19671 0.36164
0.18564 -0.19904 0.36071
0.20218 -0.14369 0.38253
0.20339 -0.14553 0.38054
0.20456 -0.14347 0.3816
0.20117 -0.14596 0.38178
0.20241 -0.14776 0.37963
0.20168 -0.15003 0.37862
0.20108 -0.15231 0.37754
0.20044 -0.15463 0.37657
0.19975 -0.15695 0.37568
0.19902 -0.15921 0.37475
0.19834 -0.16125 0.37334
0.19786 -0.16338 0.37194
0.19732 -0.16552 0.37057
0.19652 -0.16776 0.36946
0.19573 -0.17016 0.36878
0.19484 -0.17248 0.36803
0.19405 -0.17488 0.3674
0.19332 -0.17732 0.36689
0.19267 -0.17976 0.36641
0.19195 -0.18211 0.36573
0.19132 -0.18447 0.36489
0.19078 -0.18687 0.36409
0.19008 -0.1892 0.36323
0.18942 -0.19155 0.3624
0.18896 -0.19394 0.36154
0.18843 -0.19633 0.36077
0.18788 -0.19857 0.35971
0.20576 -0.14142 0.38265
0.20698 -0.14329 0.38076
0.20826 -0.14144 0.38206
0.20578 -0.1453 0.3796
0.20473 -0.14745 0.37856
0.20399 -0.14973 0.37757
0.20342 -0.15205 0.37655
0.20281 -0.1544 0.37567
0.20213 -0.15672 0.37481
0.20137 -0.15894 0.37382
0.2007 -0.16097 0.37241
0.20021 -0.16308 0.371
0.19968 -0.16524 0.36965
0.19887 -0.16747 0.36853
0.19804 -0.16986 0.3678
0.19724 -0.17225 0.36725
0.19643 -0.17459 0.36654
0.19564 -0.17699 0.36591
0.19498 -0.17943 0.36543
0.1943 -0.18183 0.36484
0.19367 -0.18417 0.36398
0.19313 -0.18657 0.36319
0.19244 -0.18892 0.36239
0.19186 -0.19133 0.36169
0.19136 -0.19364 0.36074
0.19062 -0.19581 0.35961
0.19011 -0.1981 0.35861
0.20951 -0.13967 0.38343
0.21068 -0.14184 0.3814
0.20937 -0.14346 0.37985
0.20817 -0.14549 0.3787
0.2071 -0.14757 0.37757
0.20631 -0.1498 0.37649
0.20573 -0.15212 0.37549
0.20513 -0.15449 0.37466
0.20447 -0.15682 0.37382
0.20372 -0.15904 0.37285
0.20307 -0.16111 0.3715
0.20259 -0.16321 0.37007
0.20204 -0.16532 0.36866
0.20125 -0.16758 0.36761
0.20039 -0.16994 0.36684
0.19958 -0.17235 0.36636
0.19882 -0.17472 0.36576
0.19796 -0.17702 0.3649
0.19727 -0.17944 0.36434
0.19655 -0.1818 0.36367
0.19597 -0.18418 0.36292
0.19537 -0.18653 0.36203
0.19471 -0.18892 0.3613
0.19416 -0.19136 0.36071
0.19377 -0.19377 0.35996
0.19294 -0.19575 0.35856
0.19218 -0.19776 0.35722
0.19142 -0.19963 0.35563
0.21276 -0.13799 0.38394
0.2145 -0.14042 0.3823
0.21527 -0.13804 0.38316
0.21196 -0.14024 0.38298
0.21314 -0.14216 0.38086
0.21179 -0.1436 0.37916
0.21056 -0.1455 0.37787
0.20947 -0.14754 0.3767
0.20868 -0.14974 0.37559
0.20806 -0.15202 0.37454
0.20745 -0.15438 0.37369
0.20682 -0.15673 0.37292
0.20607 -0.15895 0.37195
0.20544 -0.16102 0.37062
0.20498 -0.16313 0.36922
0.20446 -0.16529 0.3679
0.20368 -0.16758 0.36693
0.2028 -0.16988 0.36612
0.20191 -0.17221 0.36545
0.20111 -0.17455 0.36478
0.20029 -0.17688 0.36401
0.19964 -0.17931 0.36349
0.19895 -0.18167 0.36284
0.19829 -0.18395 0.36192
0.19767 -0.18626 0.36098
0.19702 -0.18867 0.36031
0.1964 -0.19105 0.35961
0.19595 -0.1934 0.35879
0.19521 -0.19549 0.35759
0.19426 -0.19718 0.35591
0.19352 -0.19908 0.3543
0.21733 -0.12813 0.38409
0.21815 -0.12955 0.38251
0.21938 -0.12732 0.38275
0.21658 -0.13057 0.38433
0.21754 -0.13205 0.3825
0.21596 -0.13306 0.38433
0.21724 -0.13453 0.38205
0.21562 -0.13555 0.38384
0.21687 -0.13697 0.38136
0.21634 -0.13939 0.38071
0.21549 -0.14169 0.37993
0.21421 -0.14344 0.37853
0.21298 -0.14522 0.37717
0.21181 -0.14713 0.37586
0.21097 -0.14926 0.37469
0.21033 -0.15152 0.3736
0.20969 -0.15384 0.37268
0.20908 -0.15621 0.37195
0.2084 -0.15849 0.3711
0.20783 -0.16066 0.36992
0.20743 -0.16287 0.36872
0.20691 -0.16501 0.36743
0.20609 -0.1672 0.36635
0.20517 -0.16945 0.36546
0.20427 -0.17174 0.36471
0.20343 -0.17403 0.36396
0.20255 -0.1763 0.3631
0.2019 -0.17875 0.3626
0.20134 -0.18122 0.36223
0.20074 -0.18353 0.3614
0.20013 -0.18581 0.36044
0.19934 -0.18803 0.35944
0.19864 -0.19034 0.35867
0.19799 -0.19252 0.35758
0.19723 -0.19459 0.35637
0.19651 -0.19654 0.35491
0.19584 -0.19849 0.35338
0.19518 -0.20052 0.35192
0.22056 -0.11763 0.38448
0.22291 -0.11907 0.3821
0.2226 -0.11674 0.38308
0.22101 -0.12001 0.38364
0.2227 -0.12147 0.38128
0.22084 -0.12244 0.38284
0.22203 -0.12395 0.38106
0.22033 -0.12496 0.38276
0.22116 -0.12634 0.38115
0.22005 -0.12859 0.38101
0.21914 -0.13096 0.38074
0.21866 -0.13338 0.38018
0.21821 -0.13577 0.37947
0.21767 -0.13818 0.37884
0.2171 -0.14057 0.37826
0.21643 -0.14287 0.3775
0.2154 -0.14494 0.37647
0.21419 -0.14672 0.37509
0.21323 -0.14868 0.37374
0.21252 -0.15086 0.37253
0.21188 -0.15318 0.37161
0.21125 -0.15555 0.37088
0.21068 -0.15792 0.37023
0.21018 -0.16018 0.36922
0.20976 -0.16237 0.36801
0.20931 -0.16461 0.36693
0.20849 -0.16674 0.36583
0.20749 -0.16886 0.36475
0.20656 -0.17111 0.36391
0.20574 -0.17341 0.3632
0.20483 -0.17562 0.36228
0.20403 -0.17796 0.36152
0.20342 -0.18042 0.36109
0.20302 -0.18289 0.36066
0.20254 -0.18527 0.35996
0.20178 -0.18748 0.35899
0.20086 -0.18951 0.35779
0.20012 -0.1916 0.35656
0.19935 -0.19366 0.35529
[...]
CELL_DATA 43092
SCALARS brightness_temperature float
LOOKUP_TABLE default
POINT_DATA 21918
CELL_DATA 43092
SCALARS emission_angle float
LOOKUP_TABLE default
POINT_DATA 21918
CELL_DATA 43092
SCALARS incidence_angle float
LOOKUP_TABLE default
POINT_DATA 21918
CELL_DATA 43092
SCALARS phase_angle float
LOOKUP_TABLE default
POINT_DATA 21918
CELL_DATA 43092
SCALARS local_solar_time float
LOOKUP_TABLE default
POINT_DATA 21918
CELL_DATA 43092
SCALARS local_solar_time_normal_vector float
LOOKUP_TABLE default
CELL_DATA 43092
SCALARS pixel_x float
LOOKUP_TABLE default
POINT_DATA 21918
CELL_DATA 43092
SCALARS pixel_y float
LOOKUP_TABLE default
POINT_DATA 21918
CELL_DATA 43092
SCALARS longitude float
LOOKUP_TABLE default
POINT_DATA 21918
CELL_DATA 43092
SCALARS latitude float
LOOKUP_TABLE default
