# vtk DataFile Version 3.0
SHAPE_sfm_50k_v20200323
ASCII
DATASET POLYDATA
POINTS 677 float
0.48648 0.05238 -0.05987
0.4856 0.05024 -0.0616
0.48468 0.05308 -0.06212
0.48343 0.05049 -0.06365
0.48306 0.05333 -0.06456
0.48165 0.05017 -0.06602
0.48151 0.05298 -0.06706
0.4805 0.05015 -0.06878
0.48 0.05296 -0.06962
0.47923 0.05068 -0.0714
0.47876 0.05348 -0.07225
0.47804 0.05105 -0.07403
0.4776 0.05383 -0.07492
0.4769 0.05101 -0.07673
0.47641 0.05379 -0.0776
0.47578 0.05101 -0.07949
0.47514 0.05378 -0.0803
0.47443 0.05121 -0.08217
0.4738 0.05396 -0.08297
0.47289 0.05161 -0.08467
0.47232 0.05436 -0.0855
0.47141 0.05196 -0.0872
0.48884 0.05155 -0.05251
0.48805 0.04984 -0.05468
0.48817 0.05289 -0.05507
0.48735 0.05114 -0.05727
0.48695 0.05416 -0.05748
0.48534 0.05525 -0.05973
0.48406 0.05602 -0.06226
0.48275 0.05629 -0.06489
0.48148 0.05593 -0.06755
0.48003 0.05589 -0.07014
0.47878 0.05639 -0.07278
0.47744 0.05675 -0.07539
0.47617 0.0567 -0.07806
0.47501 0.05667 -0.0808
0.47366 0.05685 -0.08345
0.47201 0.05724 -0.08589
0.49942 0.05009 -0.02364
0.49891 0.05086 -0.02646
0.49857 0.05301 -0.02307
0.49822 0.05386 -0.02591
0.49726 0.05334 -0.02868
0.49798 0.05038 -0.02923
0.49712 0.05239 -0.03148
0.49783 0.04944 -0.03204
0.49706 0.05172 -0.03438
0.49094 0.05179 -0.04756
0.48984 0.05016 -0.05007
0.48973 0.05322 -0.04988
0.48868 0.05459 -0.05229
0.48734 0.05581 -0.05461
0.48619 0.05707 -0.05702
0.48512 0.05826 -0.05951
0.4839 0.05902 -0.06208
0.48265 0.05929 -0.06474
0.48151 0.05893 -0.06746
0.48014 0.05887 -0.07009
0.47906 0.05935 -0.07281
0.47814 0.05966 -0.07562
0.47657 0.05963 -0.07817
0.4755 0.0596 -0.08095
0.47398 0.05976 -0.08352
0.47236 0.06014 -0.08599
0.49767 0.05594 -0.0226
0.4966 0.05652 -0.02532
0.49646 0.0563 -0.02827
0.49652 0.05541 -0.03109
0.49643 0.05473 -0.03399
0.49597 0.05419 -0.0369
0.4966 0.05119 -0.03729
0.49455 0.05392 -0.03952
0.49514 0.0509 -0.03989
0.49287 0.05382 -0.04199
0.4934 0.05078 -0.04231
0.49226 0.05097 -0.04506
0.49179 0.05402 -0.04478
0.4906 0.05484 -0.04733
0.48955 0.05627 -0.04972
0.48823 0.0576 -0.05201
0.48672 0.05878 -0.05424
0.48579 0.06006 -0.05676
0.48489 0.06127 -0.05932
0.48374 0.06202 -0.06192
0.48242 0.06227 -0.06456
0.48139 0.06191 -0.06732
0.48022 0.06185 -0.07004
0.47915 0.06234 -0.07276
0.47809 0.06268 -0.07551
0.47672 0.06261 -0.07816
0.47542 0.06257 -0.08082
0.47411 0.06271 -0.08349
0.47288 0.06305 -0.08621
0.49663 0.05887 -0.02252
0.49593 0.05958 -0.02533
0.49592 0.05937 -0.02827
0.49579 0.05842 -0.03106
0.4956 0.05772 -0.03395
0.4954 0.05725 -0.03693
0.49395 0.05696 -0.03957
0.49254 0.05691 -0.04219
0.49157 0.05709 -0.045
0.49065 0.05791 -0.04763
0.4897 0.05931 -0.0501
0.48803 0.06063 -0.05221
0.48662 0.06182 -0.0545
0.48565 0.06308 -0.057
0.48437 0.06425 -0.05942
0.4831 0.06498 -0.06199
0.482 0.06523 -0.06473
0.48105 0.06487 -0.06752
0.47982 0.0648 -0.07022
0.4784 0.06523 -0.07278
0.47703 0.06551 -0.07539
0.47588 0.06547 -0.07812
0.47483 0.06547 -0.08091
0.474 0.06566 -0.08377
0.47271 0.06601 -0.08649
0.49562 0.06179 -0.0223
0.49544 0.06266 -0.02515
0.49509 0.06236 -0.02804
0.495 0.06141 -0.03083
0.49453 0.06062 -0.03366
0.49416 0.06011 -0.03657
0.49357 0.06003 -0.03948
0.49261 0.06001 -0.04228
0.49192 0.06017 -0.04517
0.49108 0.06098 -0.0479
0.48945 0.06237 -0.05003
0.48783 0.06366 -0.05217
0.48686 0.06485 -0.0547
0.48548 0.0661 -0.05699
0.48398 0.06726 -0.05927
0.48291 0.06798 -0.06191
0.48194 0.06823 -0.06469
0.48102 0.06786 -0.0675
0.47959 0.06777 -0.07011
0.4779 0.06815 -0.07253
0.4765 0.06841 -0.07512
0.47524 0.06835 -0.07781
0.47427 0.06835 -0.08062
0.4733 0.06852 -0.08341
0.47217 0.06892 -0.08616
0.49481 0.06478 -0.02212
0.49414 0.06548 -0.02493
0.49367 0.06513 -0.02782
0.49387 0.06429 -0.03064
0.49347 0.06352 -0.03347
0.4933 0.06307 -0.03639
0.49304 0.06307 -0.03933
0.49261 0.06311 -0.04226
0.49164 0.06325 -0.04506
0.49056 0.06404 -0.04764
0.48907 0.06539 -0.04982
0.48783 0.0667 -0.05215
0.48694 0.06789 -0.05467
0.48568 0.06913 -0.05705
0.48397 0.07028 -0.05921
0.48325 0.07097 -0.06198
0.48217 0.07121 -0.06472
0.48078 0.07083 -0.0673
0.47928 0.07071 -0.06983
0.47782 0.07111 -0.07235
0.47642 0.07136 -0.07493
0.47498 0.07128 -0.07752
0.47388 0.07125 -0.08027
0.47278 0.07137 -0.08301
0.47139 0.07169 -0.08558
0.49407 0.06662 -0.01987
0.49366 0.06763 -0.02262
0.49321 0.0684 -0.02546
0.49296 0.06812 -0.02838
0.49289 0.06718 -0.03117
0.49278 0.0665 -0.03404
0.49279 0.06608 -0.03696
0.4924 0.06606 -0.03987
0.49189 0.06609 -0.04278
0.4912 0.06627 -0.04564
0.48998 0.06704 -0.04812
0.48836 0.06834 -0.05025
0.48739 0.06967 -0.05272
0.4866 0.0709 -0.05528
0.48491 0.07205 -0.05745
0.48383 0.0732 -0.05998
0.48327 0.07387 -0.0628
0.48201 0.07409 -0.06549
0.48035 0.07372 -0.06792
0.4787 0.07359 -0.07034
0.47744 0.07398 -0.07296
0.47602 0.07422 -0.07552
0.47468 0.07415 -0.07813
0.47351 0.07411 -0.08086
0.47217 0.0742 -0.08349
0.49319 0.06957 -0.0204
0.49297 0.07062 -0.02316
0.4927 0.07142 -0.026
0.4927 0.07117 -0.02893
0.4925 0.07022 -0.0317
0.49246 0.06955 -0.03457
0.49241 0.06912 -0.0375
0.4919 0.06907 -0.04041
0.49121 0.06908 -0.04329
0.48997 0.06911 -0.04596
0.48866 0.06983 -0.04841
0.48746 0.07121 -0.05077
0.48645 0.07253 -0.05322
0.48523 0.07365 -0.05562
0.4842 0.07494 -0.05806
0.48362 0.07613 -0.06072
0.48288 0.07679 -0.06347
0.4818 0.07699 -0.06621
0.48026 0.0766 -0.0687
0.47872 0.07646 -0.07121
0.47686 0.07685 -0.07346
0.47537 0.07708 -0.07599
0.47429 0.07702 -0.07873
0.47289 0.07695 -0.08134
0.47134 0.077 -0.08386
0.49294 0.07267 -0.02062
0.4927 0.07371 -0.02337
0.49245 0.07451 -0.0262
0.49233 0.07424 -0.02911
0.49219 0.0733 -0.03188
0.49198 0.0726 -0.03475
0.49161 0.07211 -0.03764
0.49095 0.07202 -0.04052
0.49 0.07194 -0.04332
0.4889 0.072 -0.04606
0.48763 0.07272 -0.04858
0.48637 0.07407 -0.05091
0.48519 0.07531 -0.05331
0.48421 0.07651 -0.0558
0.48359 0.0779 -0.05834
0.48341 0.07914 -0.06103
0.48258 0.07977 -0.06376
0.48175 0.07997 -0.06657
0.48076 0.0795 -0.06935
0.47898 0.07939 -0.07178
0.47666 0.0798 -0.07363
0.47496 0.08 -0.07603
0.47368 0.07991 -0.07869
0.47244 0.07987 -0.08137
0.4711 0.07993 -0.084
0.4925 0.07574 -0.02052
0.4923 0.07678 -0.02328
0.49215 0.0776 -0.02611
0.49233 0.07734 -0.02904
0.49195 0.07638 -0.03179
0.49132 0.07563 -0.03458
0.49064 0.07506 -0.0374
0.48978 0.07489 -0.04022
0.48891 0.07483 -0.04304
0.48776 0.07486 -0.04576
0.48652 0.07558 -0.04832
0.48529 0.07693 -0.05067
0.48426 0.07822 -0.05311
0.48348 0.07948 -0.05566
0.48318 0.08091 -0.05823
0.48276 0.0821 -0.06088
0.48231 0.08277 -0.06367
0.48174 0.08296 -0.06655
0.48109 0.0825 -0.06947
0.47907 0.08239 -0.07176
0.47654 0.08275 -0.07332
0.47455 0.08288 -0.07551
0.47333 0.08281 -0.07824
0.47218 0.08277 -0.08095
0.47106 0.08285 -0.08368
0.49204 0.0788 -0.02066
0.49194 0.07986 -0.02343
0.49197 0.08069 -0.02627
0.49213 0.08043 -0.0292
0.49173 0.07947 -0.03195
0.49092 0.07871 -0.03468
0.49009 0.07812 -0.03744
0.48896 0.0779 -0.04015
0.48791 0.07776 -0.0429
0.4867 0.07777 -0.0456
0.48556 0.07853 -0.04817
0.4847 0.07994 -0.05063
0.48375 0.08124 -0.05312
0.48324 0.08253 -0.0557
0.48315 0.08395 -0.05828
0.48259 0.08513 -0.06094
0.48225 0.08579 -0.06376
0.48176 0.08597 -0.06667
0.48123 0.08558 -0.06974
0.47891 0.0854 -0.07182
0.47638 0.08571 -0.07334
0.47399 0.08575 -0.07511
0.47273 0.08567 -0.07782
0.47176 0.08567 -0.08061
0.47081 0.08578 -0.08341
0.49145 0.08096 -0.01819
0.4916 0.08186 -0.02097
0.4917 0.08294 -0.0237
0.49164 0.08376 -0.02655
0.49187 0.08352 -0.02946
0.49159 0.08255 -0.03223
0.49106 0.08181 -0.03505
0.49 0.08122 -0.03776
0.48876 0.081 -0.04043
0.4872 0.08079 -0.04294
0.486 0.08081 -0.04564
0.48512 0.08159 -0.04829
0.48444 0.08299 -0.0508
0.48332 0.08426 -0.05324
0.4831 0.08556 -0.05586
0.48285 0.08696 -0.05842
0.48238 0.08814 -0.06109
0.48189 0.08879 -0.06392
0.48104 0.08892 -0.06676
0.48008 0.08854 -0.06963
0.478 0.08834 -0.07179
0.47548 0.08856 -0.0733
0.47317 0.08859 -0.07516
0.47199 0.08852 -0.07788
0.47092 0.0885 -0.08064
0.46972 0.08853 -0.08332
0.491 0.08403 -0.0181
0.49123 0.08494 -0.02087
0.49124 0.08601 -0.02358
0.49118 0.08682 -0.0264
0.49136 0.08657 -0.02928
0.49112 0.08561 -0.03203
0.49072 0.0849 -0.03487
0.48988 0.08433 -0.03767
0.48839 0.08407 -0.04022
0.48694 0.08387 -0.04279
0.48581 0.0839 -0.0455
0.48497 0.08466 -0.04817
0.4838 0.08599 -0.05053
0.48307 0.0873 -0.05307
0.48284 0.08858 -0.05569
0.48264 0.08998 -0.05824
0.48209 0.09115 -0.0609
0.48122 0.09173 -0.06364
0.47988 0.09165 -0.06625
0.47835 0.09092 -0.06865
0.47634 0.09071 -0.07072
0.47413 0.09115 -0.0726
0.4725 0.09147 -0.07505
0.47136 0.09141 -0.07777
0.47014 0.09133 -0.08044
0.46894 0.09135 -0.08311
0.49046 0.08706 -0.01777
0.49088 0.088 -0.0205
0.49106 0.08909 -0.02321
0.49084 0.08988 -0.02602
0.49067 0.08958 -0.02889
0.4905 0.08862 -0.03164
0.49006 0.08791 -0.03444
0.48933 0.08736 -0.03724
0.48804 0.08713 -0.03987
0.48679 0.08696 -0.04252
0.48574 0.08698 -0.04526
0.48464 0.0877 -0.04782
0.48349 0.08903 -0.05019
0.48296 0.09034 -0.05279
0.48279 0.0916 -0.0554
0.48247 0.09299 -0.05795
0.4818 0.09416 -0.06059
0.48043 0.0946 -0.06315
0.47892 0.09442 -0.06564
0.47739 0.09369 -0.06802
0.47532 0.09345 -0.07004
0.47328 0.09398 -0.07211
0.472 0.09437 -0.07474
0.47088 0.09431 -0.07745
0.46954 0.09419 -0.08006
0.46811 0.09413 -0.08261
0.48993 0.09011 -0.01753
0.49027 0.09103 -0.02027
0.49046 0.09213 -0.02297
0.49046 0.09295 -0.02579
0.49001 0.0926 -0.02864
0.48992 0.09166 -0.03139
0.48982 0.091 -0.03426
0.48917 0.09045 -0.03709
0.48773 0.09021 -0.03966
0.48659 0.09005 -0.04236
0.48556 0.09006 -0.0451
0.48447 0.09077 -0.04767
0.48354 0.0921 -0.05012
0.4831 0.09339 -0.05272
0.4828 0.09465 -0.05532
0.48224 0.09603 -0.05785
0.48114 0.09714 -0.06038
0.47951 0.09745 -0.0628
0.47795 0.09723 -0.06527
0.47661 0.09657 -0.06779
0.47465 0.09637 -0.06992
0.47266 0.09689 -0.072
0.47131 0.09725 -0.07458
0.47021 0.09718 -0.0773
0.46898 0.09708 -0.07996
0.46749 0.09699 -0.08248
0.48941 0.09316 -0.01752
0.48975 0.09409 -0.02027
0.49022 0.09524 -0.02295
0.48993 0.09601 -0.02579
0.48953 0.09566 -0.02865
0.48946 0.09472 -0.03141
[...]
CELL_DATA 1249
SCALARS brightness_temperature float
LOOKUP_TABLE default
POINT_DATA 677
CELL_DATA 1249
SCALARS emission_angle float
LOOKUP_TABLE default
POINT_DATA 677
CELL_DATA 1249
SCALARS incidence_angle float
LOOKUP_TABLE default
POINT_DATA 677
CELL_DATA 1249
SCALARS phase_angle float
LOOKUP_TABLE default
POINT_DATA 677
CELL_DATA 1249
SCALARS local_solar_time float
LOOKUP_TABLE default
POINT_DATA 677
CELL_DATA 1249
SCALARS local_solar_time_normal_vector float
LOOKUP_TABLE default
CELL_DATA 1249
SCALARS pixel_x float
LOOKUP_TABLE default
POINT_DATA 677
CELL_DATA 1249
SCALARS pixel_y float
LOOKUP_TABLE default
POINT_DATA 677
CELL_DATA 1249
SCALARS longitude float
LOOKUP_TABLE default
POINT_DATA 677
CELL_DATA 1249
SCALARS latitude float
LOOKUP_TABLE default
