# vtk DataFile Version 3.0
SHAPE_sfm_50k_v20200323
ASCII
DATASET POLYDATA
POINTS 3837 float
-0.34305 -0.3137 0.11212
-0.34414 -0.31458 0.11006
-0.34201 -0.31658 0.11079
-0.34303 -0.31741 0.10867
-0.34505 -0.31532 0.10786
-0.34391 -0.31848 0.10658
-0.34591 -0.31635 0.10575
-0.34479 -0.31946 0.10446
-0.34684 -0.31735 0.10366
-0.34571 -0.32045 0.10236
-0.34781 -0.31836 0.10159
-0.34667 -0.3214 0.10024
-0.34893 -0.31942 0.09963
-0.34774 -0.32251 0.09828
-0.34996 -0.32047 0.09761
-0.34894 -0.32361 0.09637
-0.35108 -0.3215 0.09563
-0.35018 -0.32472 0.09451
-0.35222 -0.32252 0.09366
-0.35131 -0.32573 0.09251
-0.35347 -0.32359 0.09178
-0.35208 -0.3267 0.09034
-0.35448 -0.32474 0.0898
-0.35304 -0.32771 0.08827
-0.35543 -0.32573 0.08772
-0.35404 -0.32871 0.0862
-0.35627 -0.32658 0.08552
-0.35501 -0.32959 0.08407
-0.35719 -0.32742 0.08336
-0.356 -0.3306 0.08201
-0.35812 -0.32838 0.08125
-0.3569 -0.33144 0.07983
-0.35914 -0.32932 0.07917
-0.35798 -0.3324 0.07779
-0.36009 -0.33016 0.07703
-0.35911 -0.33343 0.0758
-0.36103 -0.33102 0.07487
-0.35974 -0.33441 0.07358
-0.36201 -0.33227 0.07294
-0.36059 -0.33547 0.07149
-0.36305 -0.33348 0.07101
-0.36156 -0.33666 0.06951
-0.36401 -0.33463 0.06901
-0.3626 -0.33788 0.0675
-0.36481 -0.33552 0.06681
-0.36296 -0.33838 0.06503
-0.36544 -0.33635 0.06454
-0.36364 -0.33912 0.06274
-0.36605 -0.33701 0.06221
-0.36436 -0.33988 0.06046
-0.36674 -0.33767 0.05991
-0.36482 -0.34022 0.05801
-0.3674 -0.3383 0.05758
-0.36791 -0.33934 0.05538
-0.36527 -0.3412 0.05577
-0.36867 -0.34059 0.05334
-0.36581 -0.34215 0.05352
-0.36928 -0.34148 0.05108
-0.36648 -0.34315 0.05133
-0.37017 -0.34266 0.04907
-0.36725 -0.34414 0.04917
-0.37108 -0.34405 0.0472
-0.36803 -0.34529 0.04709
-0.37197 -0.34522 0.04518
-0.36888 -0.34636 0.045
-0.37285 -0.34629 0.0431
-0.36977 -0.34747 0.04294
-0.37366 -0.3471 0.04088
-0.37063 -0.34842 0.04079
-0.37432 -0.34795 0.03863
-0.3713 -0.34931 0.03855
-0.37496 -0.34855 0.03629
-0.37198 -0.35003 0.03626
-0.37244 -0.35026 0.03379
-0.37548 -0.34889 0.03388
-0.37317 -0.35086 0.03147
-0.37608 -0.3492 0.03147
-0.37386 -0.35146 0.02914
-0.37667 -0.3496 0.02906
-0.37456 -0.35186 0.02678
-0.37748 -0.35016 0.02675
-0.37529 -0.35216 0.0244
-0.37843 -0.35089 0.02455
-0.37609 -0.35259 0.02208
-0.37928 -0.35145 0.02229
-0.37948 -0.35179 0.01984
-0.37633 -0.35302 0.01964
-0.37966 -0.35191 0.01735
-0.37662 -0.35339 0.01719
-0.3801 -0.35247 0.01493
-0.37691 -0.35366 0.01473
-0.38046 -0.35264 0.01247
-0.37731 -0.35394 0.01228
-0.38078 -0.35279 0.01
-0.3776 -0.35405 0.0098
-0.37807 -0.35427 0.00736
-0.38117 -0.35282 0.00754
-0.3786 -0.35454 0.00493
-0.38154 -0.35279 0.00507
-0.37915 -0.35473 0.00248
-0.38203 -0.35285 0.00263
-0.38222 -0.35323 0.00016
-0.37918 -0.35482 -2e-05
-0.38229 -0.35319 -0.00235
-0.37934 -0.35495 -0.00252
-0.38217 -0.35291 -0.00483
-0.37921 -0.35464 -0.00502
-0.37934 -0.35453 -0.00752
-0.38211 -0.3525 -0.00729
-0.38191 -0.35211 -0.00974
-0.37923 -0.35424 -0.01
-0.37914 -0.35379 -0.01246
-0.38165 -0.35147 -0.01214
-0.37898 -0.35325 -0.0149
-0.3813 -0.35076 -0.01451
-0.37864 -0.35239 -0.01725
-0.38095 -0.34989 -0.01682
-0.3803 -0.34936 -0.01917
-0.37765 -0.3515 -0.01938
-0.37956 -0.34863 -0.02144
-0.37691 -0.35077 -0.02165
-0.37873 -0.34781 -0.02364
-0.37624 -0.3501 -0.02396
-0.37805 -0.34697 -0.02589
-0.37571 -0.3494 -0.02632
-0.377 -0.3459 -0.0279
-0.37461 -0.34828 -0.0283
-0.37636 -0.34507 -0.03019
-0.37374 -0.3472 -0.03038
-0.37308 -0.3463 -0.03261
-0.37564 -0.3441 -0.03237
-0.37247 -0.34526 -0.03481
-0.37483 -0.3429 -0.03441
-0.37371 -0.342 -0.03645
-0.37154 -0.34451 -0.03701
-0.37282 -0.34123 -0.03865
-0.37061 -0.3437 -0.03918
-0.37199 -0.34048 -0.04088
-0.36958 -0.34278 -0.04126
-0.37129 -0.33967 -0.04313
-0.36878 -0.34186 -0.04344
-0.37067 -0.33905 -0.04546
-0.36809 -0.34115 -0.04573
-0.36993 -0.33816 -0.04768
-0.36745 -0.34034 -0.04801
-0.34097 -0.31946 0.10951
-0.33983 -0.31852 0.11154
-0.34186 -0.32056 0.10744
-0.34274 -0.32155 0.10531
-0.34363 -0.32253 0.10319
-0.34465 -0.32354 0.10114
-0.34573 -0.32467 0.09918
-0.34691 -0.32578 0.09727
-0.34789 -0.32672 0.09517
-0.34883 -0.32759 0.09302
-0.34967 -0.32864 0.0909
-0.35059 -0.32963 0.08878
-0.35153 -0.33059 0.08667
-0.35258 -0.33155 0.0846
-0.35363 -0.33261 0.08259
-0.35458 -0.3335 0.08045
-0.35546 -0.33428 0.07824
-0.35628 -0.33498 0.07598
-0.35699 -0.33601 0.07381
-0.35777 -0.33699 0.07163
-0.35872 -0.33817 0.06963
-0.35958 -0.33919 0.06748
-0.36014 -0.33999 0.06517
-0.36086 -0.34078 0.06289
-0.36143 -0.34132 0.06051
-0.36214 -0.34203 0.05823
-0.36262 -0.34306 0.05599
-0.36316 -0.34401 0.05374
-0.36366 -0.34478 0.0514
-0.36433 -0.3456 0.04913
-0.36499 -0.3465 0.04689
-0.3658 -0.3475 0.04475
-0.36674 -0.3488 0.04281
-0.36765 -0.3499 0.04073
-0.36824 -0.35057 0.03837
-0.36891 -0.3513 0.03607
-0.36955 -0.35192 0.03372
-0.37024 -0.35248 0.03138
-0.37086 -0.35298 0.02901
-0.37148 -0.35322 0.02659
-0.37218 -0.35346 0.0242
-0.37293 -0.35379 0.02183
-0.37315 -0.35417 0.01937
-0.37347 -0.35462 0.01692
-0.37382 -0.35504 0.01448
-0.37422 -0.35535 0.01203
-0.37451 -0.35548 0.00954
-0.37497 -0.35567 0.00709
-0.37548 -0.35594 0.00465
-0.376 -0.35608 0.00219
-0.37606 -0.35623 -0.00031
-0.37623 -0.35638 -0.00281
-0.37622 -0.35629 -0.00532
-0.37639 -0.35626 -0.00782
-0.37637 -0.3561 -0.01033
-0.3764 -0.35582 -0.01282
-0.37637 -0.35544 -0.01531
-0.37603 -0.35457 -0.01766
-0.37517 -0.35379 -0.01989
-0.37456 -0.35315 -0.02223
-0.37384 -0.35244 -0.02453
-0.37301 -0.35145 -0.02668
-0.37206 -0.35046 -0.02877
-0.37132 -0.3495 -0.03097
-0.37062 -0.34854 -0.03318
-0.37007 -0.34755 -0.03541
-0.3692 -0.34683 -0.03765
-0.36824 -0.34599 -0.03981
-0.36707 -0.34493 -0.04177
-0.36619 -0.34392 -0.04389
-0.36541 -0.34309 -0.04612
-0.36469 -0.34215 -0.04833
-0.33889 -0.32151 0.11034
-0.33972 -0.32259 0.10822
-0.34057 -0.32357 0.10608
-0.34166 -0.3247 0.10412
-0.34272 -0.32575 0.10211
-0.34385 -0.32693 0.10019
-0.34481 -0.32792 0.09808
-0.34587 -0.32896 0.09604
-0.34676 -0.32981 0.09384
-0.34743 -0.33073 0.09159
-0.34824 -0.33165 0.08939
-0.34919 -0.33263 0.08727
-0.35021 -0.33358 0.08518
-0.35121 -0.3346 0.08312
-0.35215 -0.33548 0.08097
-0.3531 -0.33633 0.07883
-0.35397 -0.33709 0.07661
-0.35441 -0.33782 0.07425
-0.35498 -0.3385 0.07189
-0.35571 -0.33929 0.06962
-0.35654 -0.34026 0.06745
-0.35717 -0.34124 0.06522
-0.35797 -0.34223 0.06305
-0.35874 -0.34309 0.06082
-0.35946 -0.34383 0.05853
-0.36001 -0.34497 0.05634
-0.36055 -0.34596 0.05407
-0.36088 -0.34648 0.05162
-0.36134 -0.34695 0.04919
-0.36192 -0.34767 0.04685
-0.36266 -0.34849 0.0446
-0.36359 -0.34982 0.04267
-0.36449 -0.35091 0.04057
-0.36511 -0.35166 0.03824
-0.36579 -0.35242 0.03594
-0.3665 -0.35327 0.03368
-0.36725 -0.354 0.0314
-0.36778 -0.35432 0.02896
-0.3684 -0.35459 0.02654
-0.36904 -0.35473 0.02411
-0.36978 -0.35505 0.02173
-0.36998 -0.35538 0.01925
-0.37025 -0.3557 0.01677
-0.37064 -0.35623 0.01434
-0.37101 -0.35648 0.01187
-0.37132 -0.35668 0.00938
-0.3718 -0.35696 0.00693
-0.37229 -0.35717 0.00447
-0.37282 -0.35734 0.00202
-0.37297 -0.35769 -0.00047
-0.37312 -0.35779 -0.00298
-0.37321 -0.35792 -0.00549
-0.37339 -0.35792 -0.008
-0.37339 -0.3578 -0.0105
-0.37351 -0.35765 -0.01301
-0.37358 -0.35744 -0.01553
-0.37342 -0.35677 -0.01796
-0.37288 -0.3563 -0.02039
-0.37223 -0.3556 -0.02273
-0.37129 -0.35467 -0.02488
-0.37048 -0.35369 -0.02706
-0.36978 -0.35292 -0.02934
-0.36919 -0.35204 -0.03163
-0.36845 -0.35104 -0.03381
-0.36773 -0.3499 -0.03593
-0.36675 -0.34909 -0.0381
-0.36567 -0.34813 -0.04016
-0.36447 -0.34704 -0.04209
-0.36359 -0.346 -0.04421
-0.36272 -0.34505 -0.04637
-0.36201 -0.3441 -0.0486
-0.33718 -0.32424 0.10863
-0.3364 -0.32319 0.11078
-0.33807 -0.32528 0.1065
-0.33921 -0.32651 0.10461
-0.34038 -0.32767 0.1027
-0.34141 -0.32879 0.10068
-0.3424 -0.32981 0.09859
-0.34331 -0.33072 0.09642
-0.3443 -0.33169 0.09431
-0.34517 -0.33281 0.09223
-0.34605 -0.33381 0.09009
-0.3471 -0.33487 0.08805
-0.34841 -0.33601 0.08621
-0.34948 -0.33705 0.08417
-0.35034 -0.33791 0.08196
-0.35111 -0.33866 0.07968
-0.35164 -0.33914 0.07727
-0.35203 -0.33984 0.07488
-0.35236 -0.34026 0.07241
-0.35296 -0.34089 0.07004
-0.35372 -0.34176 0.0678
-0.35428 -0.34262 0.0655
-0.35502 -0.34353 0.06327
-0.35585 -0.34454 0.06112
-0.35688 -0.34581 0.05916
-0.35734 -0.34681 0.05685
-0.35767 -0.34745 0.05438
-0.35803 -0.34802 0.05194
-0.35841 -0.34836 0.04947
-0.35881 -0.34876 0.04701
-0.35949 -0.34943 0.04465
-0.36034 -0.35047 0.04251
-0.36125 -0.35158 0.04043
-0.36191 -0.35253 0.03819
-0.36263 -0.35345 0.03596
-0.3633 -0.35423 0.03366
-0.36405 -0.35499 0.03138
-0.36465 -0.35552 0.02899
-0.36528 -0.35587 0.02658
-0.36595 -0.3561 0.02416
-0.36664 -0.35632 0.02175
-0.36683 -0.35666 0.01926
-0.36711 -0.357 0.01678
-0.36741 -0.35731 0.01429
-0.36778 -0.35755 0.01181
-0.36811 -0.35783 0.00932
-0.36861 -0.35818 0.00687
-0.36913 -0.35847 0.00442
-0.36962 -0.35858 0.00195
-0.36981 -0.35902 -0.00053
-0.37008 -0.35937 -0.00301
-0.37021 -0.3596 -0.00552
-0.37041 -0.35961 -0.00804
-0.37052 -0.35966 -0.01056
-0.3706 -0.35946 -0.01307
-0.3706 -0.35915 -0.01557
-0.37061 -0.35873 -0.01806
-0.37022 -0.35845 -0.02054
-0.36962 -0.35779 -0.0229
-0.36889 -0.35705 -0.0252
-0.36827 -0.35623 -0.02751
-0.36775 -0.35558 -0.02989
-0.36708 -0.35464 -0.03213
-0.36632 -0.35361 -0.03431
-0.36552 -0.35241 -0.03638
-0.36445 -0.35151 -0.03848
-0.36349 -0.35063 -0.04064
-0.36251 -0.3497 -0.04277
-0.36132 -0.34844 -0.04462
-0.36028 -0.34733 -0.04664
-0.35945 -0.34624 -0.04879
-0.33478 -0.32609 0.10887
-0.33399 -0.32501 0.11101
-0.33589 -0.32736 0.10697
-0.33699 -0.32856 0.10503
-0.33805 -0.32963 0.103
-0.33896 -0.33066 0.10087
-0.33984 -0.33157 0.09868
-0.34077 -0.33252 0.09653
-0.34179 -0.33355 0.09446
-0.34288 -0.33492 0.09264
-0.34419 -0.3363 0.09092
-0.34523 -0.33736 0.08886
-0.3464 -0.33845 0.08694
-0.3478 -0.33975 0.08525
-0.34896 -0.34076 0.08314
-0.34949 -0.34134 0.08061
-0.34976 -0.34165 0.07805
-0.34962 -0.34181 0.0755
-0.34986 -0.34214 0.07301
-0.35033 -0.34263 0.07058
-0.35087 -0.34318 0.06817
-0.35144 -0.34408 0.06588
[...]
CELL_DATA 7396
SCALARS brightness_temperature float
LOOKUP_TABLE default
POINT_DATA 3837
CELL_DATA 7396
SCALARS emission_angle float
LOOKUP_TABLE default
POINT_DATA 3837
CELL_DATA 7396
SCALARS incidence_angle float
LOOKUP_TABLE default
POINT_DATA 3837
CELL_DATA 7396
SCALARS phase_angle float
LOOKUP_TABLE default
POINT_DATA 3837
CELL_DATA 7396
SCALARS local_solar_time float
LOOKUP_TABLE default
POINT_DATA 3837
CELL_DATA 7396
SCALARS local_solar_time_normal_vector float
LOOKUP_TABLE default
CELL_DATA 7396
SCALARS pixel_x float
LOOKUP_TABLE default
POINT_DATA 3837
CELL_DATA 7396
SCALARS pixel_y float
LOOKUP_TABLE default
POINT_DATA 3837
CELL_DATA 7396
SCALARS longitude float
LOOKUP_TABLE default
POINT_DATA 3837
CELL_DATA 7396
SCALARS latitude float
LOOKUP_TABLE default
