# vtk DataFile Version 3.0
SHAPE_sfm_50k_v20200323
ASCII
DATASET POLYDATA
POINTS 187 float
-0.31947 0.30642 0.14529
-0.32251 0.30562 0.14358
-0.32136 0.30457 0.14542
-0.32066 0.30751 0.1435
-0.32373 0.30672 0.14182
-0.3219 0.30862 0.14175
-0.32324 0.30979 0.14013
-0.32505 0.30786 0.14017
-0.32631 0.30903 0.13848
-0.32452 0.31098 0.13847
-0.32581 0.31219 0.13682
-0.32759 0.31021 0.13682
-0.32717 0.31343 0.13527
-0.32897 0.31147 0.13529
-0.32437 0.30375 0.14378
-0.32322 0.30271 0.14562
-0.32559 0.30485 0.14202
-0.32687 0.30595 0.14031
-0.32818 0.30717 0.1387
-0.32948 0.30836 0.13706
-0.33081 0.30956 0.13545
-0.33224 0.3108 0.13395
-0.33036 0.31267 0.13373
-0.33369 0.3121 0.13253
-0.3318 0.31397 0.1323
-0.33511 0.31332 0.13101
-0.33326 0.31524 0.13086
-0.33465 0.31645 0.12931
-0.33642 0.31444 0.12932
-0.33594 0.31751 0.12757
-0.33768 0.31547 0.12753
-0.32624 0.30191 0.14412
-0.32515 0.30097 0.14606
-0.32744 0.30297 0.14231
-0.32882 0.30421 0.14076
-0.3301 0.30539 0.13909
-0.33145 0.30664 0.13752
-0.33277 0.3078 0.13586
-0.3342 0.30904 0.13436
-0.33561 0.31026 0.13282
-0.33698 0.3114 0.13118
-0.33823 0.31247 0.12941
-0.3395 0.31349 0.12761
-0.34058 0.31455 0.12572
-0.33881 0.31657 0.1257
-0.34153 0.31546 0.12368
-0.33976 0.31751 0.12368
-0.3281 0.30013 0.14472
-0.32699 0.29916 0.14665
-0.3293 0.30118 0.1429
-0.3306 0.30228 0.14118
-0.33195 0.30356 0.13962
-0.3333 0.30479 0.13802
-0.33459 0.30591 0.1363
-0.33598 0.30707 0.1347
-0.33739 0.30829 0.13315
-0.33878 0.30944 0.1315
-0.34001 0.31047 0.12967
-0.34127 0.31148 0.12786
-0.34238 0.31254 0.12595
-0.34315 0.3133 0.12377
-0.32975 0.29822 0.14549
-0.32861 0.2972 0.14738
-0.331 0.29933 0.14372
-0.33231 0.30044 0.14201
-0.3336 0.30162 0.14031
-0.33485 0.30269 0.13852
-0.33607 0.30373 0.1367
-0.33747 0.3049 0.13509
-0.33888 0.3061 0.13352
-0.34033 0.30731 0.13197
-0.34159 0.30836 0.13015
-0.34283 0.30932 0.12828
-0.34388 0.31032 0.12632
-0.34476 0.31118 0.1242
-0.33146 0.2965 0.14654
-0.33028 0.29545 0.1484
-0.3327 0.2976 0.14476
-0.33399 0.29865 0.14299
-0.33528 0.29982 0.14128
-0.33649 0.30082 0.1394
-0.3376 0.30167 0.1374
-0.33891 0.30273 0.13564
-0.3403 0.3039 0.13402
-0.34176 0.3051 0.13247
-0.34303 0.30614 0.13064
-0.34413 0.30698 0.12862
-0.34522 0.30801 0.12669
-0.3463 0.30902 0.12475
-0.33332 0.29497 0.14763
-0.33211 0.29386 0.14945
-0.33453 0.29596 0.14575
-0.33577 0.29692 0.14389
-0.33706 0.29807 0.14217
-0.33841 0.29933 0.14053
-0.33946 0.30005 0.1384
-0.34067 0.30092 0.13646
-0.34197 0.30195 0.13468
-0.34338 0.30306 0.13302
-0.34463 0.30407 0.13116
-0.34575 0.30491 0.12914
-0.34674 0.30583 0.12711
-0.34771 0.30672 0.12505
-0.33513 0.2934 0.14875
-0.334 0.29251 0.15073
-0.33633 0.29436 0.14684
-0.33757 0.29532 0.14498
-0.33883 0.29637 0.14316
-0.34007 0.29738 0.14131
-0.34129 0.29842 0.13944
-0.34251 0.2993 0.13751
-0.34376 0.30018 0.13561
-0.34511 0.30118 0.13382
-0.34629 0.30207 0.13185
-0.34737 0.30284 0.12977
-0.34826 0.30365 0.12763
-0.34908 0.30443 0.12547
-0.33698 0.29198 0.15001
-0.33583 0.29108 0.15199
-0.33816 0.2929 0.14807
-0.33938 0.29379 0.14615
-0.34061 0.29474 0.14425
-0.34183 0.29569 0.14234
-0.343 0.2966 0.14038
-0.34425 0.2975 0.13847
-0.34547 0.29832 0.1365
-0.34675 0.29918 0.13459
-0.34782 0.29995 0.1325
-0.34886 0.30068 0.13039
-0.34966 0.30142 0.12818
-0.35052 0.30221 0.12603
-0.33881 0.29043 0.15116
-0.3377 0.28961 0.15319
-0.34004 0.29145 0.14929
-0.3413 0.2924 0.14738
-0.34244 0.29314 0.14531
-0.34355 0.29388 0.14325
-0.34476 0.29483 0.14132
-0.34599 0.29567 0.13934
-0.34711 0.29632 0.13724
-0.3483 0.29706 0.13521
-0.34928 0.29775 0.13305
-0.35032 0.29848 0.13094
-0.35116 0.29924 0.12874
-0.35196 0.29998 0.12654
-0.34057 0.28885 0.15238
-0.33942 0.28795 0.15437
-0.34175 0.28973 0.15039
-0.34303 0.29071 0.14851
-0.34421 0.29153 0.14648
-0.34529 0.2922 0.14434
-0.3464 0.29296 0.14226
-0.34758 0.29368 0.1402
-0.34858 0.29421 0.13798
-0.34959 0.29478 0.13581
-0.3506 0.29549 0.13366
-0.35163 0.29619 0.13152
-0.35244 0.29692 0.1293
-0.34222 0.28711 0.15356
-0.34345 0.28806 0.15161
-0.34469 0.28892 0.14962
-0.34589 0.28974 0.14762
-0.34724 0.29079 0.14574
-0.34821 0.29129 0.14342
-0.34894 0.29153 0.14103
-0.34992 0.29204 0.13882
-0.351 0.29267 0.13667
-0.35189 0.29327 0.13442
-0.35279 0.29387 0.13219
-0.35361 0.29459 0.12997
-0.34504 0.28613 0.15261
-0.34625 0.28688 0.15053
-0.34731 0.28754 0.14839
-0.34863 0.28846 0.14647
-0.34956 0.28902 0.14415
-0.35024 0.2893 0.14173
-0.35131 0.28988 0.13957
-0.35243 0.29054 0.13743
-0.35332 0.29113 0.13517
-0.35422 0.29173 0.13293
-0.35508 0.29246 0.13072
-0.35273 0.28767 0.14011
-0.3538 0.28827 0.13792
-0.35481 0.28896 0.13574
-0.35578 0.28961 0.13353
-0.35666 0.29036 0.13132
-0.32013 0.3107 0.14181
POLYGONS 318 1272
3 0 1 2
3 0 3 1
3 3 4 1
3 3 5 4
3 5 6 4
3 4 6 7
3 6 8 7
3 6 9 8
3 9 10 8
3 8 10 11
3 10 12 11
3 11 12 13
3 2 14 15
3 2 1 14
3 1 16 14
3 1 4 16
3 4 17 16
3 4 7 17
3 7 18 17
3 7 8 18
3 8 19 18
3 8 11 19
3 11 20 19
3 11 13 20
3 13 21 20
3 13 22 21
3 22 23 21
3 22 24 23
3 24 25 23
3 24 26 25
3 26 27 25
3 25 27 28
3 27 29 28
3 28 29 30
3 15 31 32
3 15 14 31
3 14 33 31
3 14 16 33
3 16 34 33
3 16 17 34
3 17 35 34
3 17 18 35
3 18 36 35
3 18 19 36
3 19 37 36
3 19 20 37
3 20 38 37
3 20 21 38
3 21 39 38
3 21 23 39
3 23 40 39
3 23 25 40
3 25 41 40
3 25 28 41
3 28 30 41
3 41 30 42
3 30 43 42
3 30 44 43
3 44 45 43
3 44 46 45
3 32 47 48
3 32 31 47
3 31 49 47
3 31 33 49
3 33 50 49
3 33 34 50
3 34 51 50
3 34 35 51
3 35 52 51
3 35 36 52
3 36 53 52
3 36 37 53
3 37 54 53
3 37 38 54
3 38 55 54
3 38 39 55
3 39 56 55
3 39 40 56
3 40 57 56
3 40 41 57
3 41 58 57
3 41 42 58
3 42 59 58
3 42 43 59
3 43 60 59
3 43 45 60
3 48 61 62
3 48 47 61
3 47 63 61
3 47 49 63
3 49 64 63
3 49 50 64
3 50 65 64
3 50 51 65
3 51 66 65
3 51 52 66
3 52 67 66
3 52 53 67
3 53 68 67
3 53 54 68
3 54 69 68
3 54 55 69
3 55 70 69
3 55 56 70
3 56 71 70
3 56 57 71
3 57 72 71
3 57 58 72
3 58 73 72
3 58 59 73
3 59 74 73
3 59 60 74
3 62 75 76
3 62 61 75
3 61 77 75
3 61 63 77
3 63 78 77
3 63 64 78
3 64 79 78
3 64 65 79
3 65 80 79
3 65 66 80
3 66 81 80
3 66 67 81
3 67 82 81
3 67 68 82
3 68 83 82
3 68 69 83
3 69 84 83
3 69 70 84
3 70 85 84
3 70 71 85
3 71 86 85
3 71 72 86
3 72 87 86
3 72 73 87
3 73 88 87
3 73 74 88
3 76 89 90
3 76 75 89
3 75 91 89
3 75 77 91
3 77 92 91
3 77 78 92
3 78 93 92
3 78 79 93
3 79 94 93
3 79 80 94
3 80 95 94
3 80 81 95
3 81 96 95
3 81 82 96
3 82 97 96
3 82 83 97
3 83 98 97
3 83 84 98
3 84 99 98
3 84 85 99
3 85 100 99
3 85 86 100
3 86 101 100
3 86 87 101
3 87 102 101
3 87 88 102
3 90 103 104
3 90 89 103
3 89 105 103
3 89 91 105
3 91 106 105
3 91 92 106
3 92 107 106
3 92 93 107
3 93 108 107
3 93 94 108
3 94 109 108
3 94 95 109
3 95 110 109
3 95 96 110
3 96 111 110
3 96 97 111
3 97 112 111
3 97 98 112
3 98 113 112
3 98 99 113
3 99 114 113
3 99 100 114
3 100 115 114
3 100 101 115
3 101 116 115
3 101 102 116
3 104 117 118
3 104 103 117
3 103 119 117
3 103 105 119
3 105 120 119
3 105 106 120
3 106 121 120
3 106 107 121
3 107 122 121
3 107 108 122
3 108 123 122
3 108 109 123
3 109 124 123
3 109 110 124
3 110 125 124
3 110 111 125
3 111 126 125
3 111 112 126
3 112 127 126
3 112 113 127
3 113 128 127
3 113 114 128
3 114 129 128
3 114 115 129
3 115 130 129
3 115 116 130
3 118 131 132
3 118 117 131
3 117 133 131
3 117 119 133
3 119 134 133
3 119 120 134
3 120 135 134
3 120 121 135
3 121 136 135
3 121 122 136
3 122 137 136
3 122 123 137
3 123 138 137
3 123 124 138
3 124 139 138
3 124 125 139
3 125 140 139
3 125 126 140
3 126 141 140
3 126 127 141
3 127 142 141
3 127 128 142
3 128 143 142
3 128 129 143
3 129 144 143
3 132 145 146
3 132 131 145
3 131 147 145
3 131 133 147
3 133 148 147
3 133 134 148
3 134 149 148
3 134 135 149
3 135 150 149
3 135 136 150
3 136 151 150
3 136 137 151
3 137 152 151
3 137 138 152
3 138 153 152
3 138 139 153
3 139 154 153
3 139 140 154
3 140 155 154
3 140 141 155
3 141 156 155
3 141 142 156
3 142 157 156
3 142 143 157
3 146 145 158
3 145 159 158
3 145 147 159
3 147 160 159
3 147 148 160
3 148 161 160
3 148 149 161
3 149 162 161
3 149 150 162
3 150 163 162
3 150 151 163
3 151 164 163
3 151 152 164
3 152 165 164
3 152 153 165
3 153 166 165
3 153 154 166
3 154 167 166
3 154 155 167
3 155 168 167
3 155 156 168
3 156 169 168
3 156 157 169
3 158 159 170
3 159 160 171
3 160 172 171
3 160 161 172
3 161 173 172
3 161 162 173
3 162 174 173
3 162 163 174
3 163 175 174
3 163 164 175
3 164 176 175
3 164 165 176
3 165 177 176
3 165 166 177
3 166 178 177
3 166 167 178
3 167 179 178
3 167 168 179
3 168 180 179
3 168 169 180
3 175 176 181
3 176 182 181
3 176 177 182
3 177 183 182
3 177 178 183
3 178 184 183
3 178 179 184
3 179 185 184
3 179 180 185
3 3 186 5
CELL_DATA 318
SCALARS brightness_temperature float
LOOKUP_TABLE default
POINT_DATA 187
CELL_DATA 318
SCALARS emission_angle float
LOOKUP_TABLE default
POINT_DATA 187
CELL_DATA 318
SCALARS incidence_angle float
LOOKUP_TABLE default
POINT_DATA 187
CELL_DATA 318
SCALARS phase_angle float
LOOKUP_TABLE default
POINT_DATA 187
CELL_DATA 318
SCALARS local_solar_time float
LOOKUP_TABLE default
POINT_DATA 187
CELL_DATA 318
SCALARS local_solar_time_normal_vector float
LOOKUP_TABLE default
CELL_DATA 318
SCALARS pixel_x float
LOOKUP_TABLE default
POINT_DATA 187
CELL_DATA 318
SCALARS pixel_y float
LOOKUP_TABLE default
POINT_DATA 187
CELL_DATA 318
SCALARS longitude float
LOOKUP_TABLE default
POINT_DATA 187
CELL_DATA 318
SCALARS latitude float
LOOKUP_TABLE default
