# vtk DataFile Version 3.0
SHAPE_sfm_50k_v20200323
ASCII
DATASET POLYDATA
POINTS 781 float
0.22992 0.00574 0.39649
0.23171 0.00421 0.39442
0.2316 0.00675 0.39444
0.23013 0.0032 0.39654
0.23195 0.00169 0.39454
0.23051 0.00069 0.39676
0.23242 -0.00079 0.39477
0.23115 -0.00174 0.3971
0.23306 -0.00323 0.39513
0.23176 -0.0042 0.39749
0.23315 -0.00578 0.39524
0.23161 -0.00676 0.39743
0.2325 -0.00823 0.3949
0.23108 -0.00923 0.39712
0.23193 -0.01066 0.39456
0.23045 -0.01165 0.39676
0.23168 -0.01317 0.39429
0.22999 -0.01411 0.39634
0.23171 -0.01569 0.39409
0.22991 -0.01663 0.39603
0.23183 -0.0182 0.39394
0.23004 -0.01916 0.39588
0.23178 -0.02068 0.39362
0.23026 -0.02167 0.39577
0.23154 -0.02315 0.39316
0.23031 -0.02418 0.39549
0.23141 -0.02565 0.39287
0.23011 -0.02667 0.39514
0.23135 -0.02815 0.3926
0.22989 -0.02915 0.39476
0.23143 -0.03065 0.39232
0.22979 -0.03164 0.39435
0.2315 -0.03317 0.39205
0.22977 -0.03415 0.394
0.23156 -0.03567 0.39184
0.23007 0.0192 0.3946
0.23234 0.01748 0.39274
0.23184 0.01992 0.39247
0.23048 0.01672 0.39478
0.23262 0.015 0.39284
0.2308 0.01423 0.39491
0.23287 0.01251 0.39269
0.2312 0.01176 0.39488
0.23303 0.01002 0.39239
0.2315 0.00927 0.39466
0.2331 0.00752 0.39216
0.23324 0.00499 0.39216
0.23347 0.00249 0.39229
0.23363 -2e-05 0.39233
0.23377 -0.00254 0.39245
0.23421 -0.00501 0.39272
0.23427 -0.00754 0.39278
0.23361 -0.00997 0.39241
0.23346 -0.01248 0.39222
0.23355 -0.01499 0.39208
0.23359 -0.01748 0.39186
0.23347 -0.01995 0.39149
0.23331 -0.02242 0.39109
0.23315 -0.02491 0.39078
0.23307 -0.0274 0.39052
0.23314 -0.0299 0.39024
0.23333 -0.03241 0.39009
0.23355 -0.03491 0.39005
0.23364 0.01999 0.39025
0.23395 0.01753 0.39039
0.23402 0.01504 0.39034
0.23419 0.01256 0.39016
0.2344 0.01008 0.38989
0.23466 0.00759 0.38979
0.23486 0.0051 0.38984
0.23499 0.00261 0.38991
0.23514 0.00011 0.38995
0.23513 -0.00238 0.38997
0.23517 -0.00488 0.39006
0.23523 -0.00738 0.39012
0.23512 -0.00988 0.39005
0.2353 -0.01238 0.3901
0.23537 -0.01486 0.38994
0.23535 -0.01734 0.38968
0.23525 -0.01981 0.38933
0.23504 -0.02226 0.38889
0.23484 -0.02474 0.38857
0.23479 -0.02724 0.38834
0.23501 -0.02974 0.38818
0.2353 -0.03222 0.38813
0.23555 -0.0347 0.38813
0.23531 0.01933 0.38801
0.23559 0.01687 0.38812
0.23576 0.01439 0.38815
0.2359 0.01193 0.38792
0.23615 0.00947 0.3877
0.23639 0.007 0.3876
0.2365 0.00452 0.3876
0.23654 0.00204 0.38762
0.23664 -0.00044 0.38761
0.23679 -0.00291 0.38773
0.23662 -0.00538 0.38768
0.23642 -0.00787 0.38758
0.23673 -0.01035 0.38779
0.23701 -0.01281 0.38791
0.23712 -0.01528 0.38778
0.23707 -0.01775 0.38749
0.23687 -0.02018 0.38705
0.23665 -0.02262 0.3866
0.23657 -0.02511 0.38638
0.2366 -0.0276 0.38623
0.23692 -0.03008 0.38618
0.23731 -0.03253 0.38623
0.23735 -0.03498 0.38603
0.23714 0.01818 0.38611
0.23743 0.01573 0.38623
0.23758 0.01327 0.38624
0.23777 0.01083 0.38605
0.23796 0.00839 0.38578
0.23802 0.00593 0.38553
0.23804 0.00346 0.38546
0.23807 0.001 0.38546
0.23821 -0.00146 0.38549
0.23834 -0.00392 0.3856
0.23811 -0.00638 0.38549
0.23804 -0.00886 0.38546
0.23838 -0.01131 0.38571
0.23859 -0.01375 0.38578
0.23878 -0.01621 0.3857
0.23876 -0.01866 0.38543
0.23858 -0.02108 0.385
0.23848 -0.02354 0.38467
0.23837 -0.026 0.38442
0.23841 -0.02849 0.38429
0.2388 -0.03094 0.38432
0.23921 -0.03337 0.38438
0.23865 0.01926 0.38441
0.23916 0.01687 0.38453
0.23939 0.01442 0.38458
0.23945 0.01197 0.38449
0.2396 0.00955 0.38426
0.23975 0.00713 0.38395
0.23977 0.00469 0.38365
0.23971 0.00224 0.38351
0.23973 -0.00021 0.3835
0.2398 -0.00265 0.38347
0.23978 -0.0051 0.38346
0.23978 -0.00755 0.38353
0.23994 -0.01 0.38369
0.24022 -0.01242 0.38389
0.24037 -0.01486 0.38389
0.24049 -0.01731 0.38375
0.24044 -0.01975 0.38345
0.24038 -0.02218 0.38313
0.24027 -0.02461 0.38279
0.24017 -0.02706 0.38256
0.24024 -0.02953 0.38246
0.24059 -0.03196 0.38245
0.24066 -0.03439 0.38223
0.23896 -0.03578 0.38392
0.24013 0.02028 0.38278
0.24071 0.01792 0.3829
0.24114 0.01551 0.38294
0.24124 0.01307 0.38287
0.24135 0.01064 0.38282
0.2416 0.00822 0.38269
0.2416 0.00583 0.38222
0.24154 0.00342 0.38183
0.24149 0.00099 0.38169
0.24149 -0.00145 0.38166
0.24152 -0.00388 0.38158
0.24145 -0.00631 0.38154
0.24149 -0.00874 0.38163
0.24166 -0.01116 0.3818
0.24186 -0.01359 0.38192
0.24189 -0.01602 0.38183
0.24201 -0.01845 0.38168
0.24216 -0.02088 0.38154
0.24224 -0.02331 0.38135
0.24211 -0.02573 0.38099
0.24201 -0.02816 0.38077
0.24213 -0.0306 0.38071
0.24214 -0.03301 0.38039
0.2421 -0.03542 0.38007
0.2421 0.01901 0.38109
0.24262 0.01664 0.38115
0.2429 0.01423 0.38105
0.24297 0.0118 0.38097
0.24334 0.00939 0.38112
0.24333 0.00698 0.38077
0.24335 0.0046 0.38033
0.24334 0.0022 0.38
0.24325 -0.00021 0.37982
0.24324 -0.00263 0.37976
0.24319 -0.00504 0.37962
0.24308 -0.00745 0.37953
0.24309 -0.00987 0.37961
0.24309 -0.01229 0.37965
0.24322 -0.0147 0.37971
0.24342 -0.01711 0.37974
0.24373 -0.01951 0.37973
0.24393 -0.02193 0.37963
0.24402 -0.02435 0.37945
0.24393 -0.02675 0.37913
0.24391 -0.02917 0.37898
0.24392 -0.03159 0.37881
0.24388 -0.03397 0.37843
0.24351 0.0202 0.37902
0.24385 0.01781 0.37912
0.24421 0.01543 0.37906
0.24439 0.01303 0.3789
0.24439 0.01062 0.37877
0.24439 0.00821 0.37869
0.24481 0.00584 0.37862
0.24503 0.00345 0.37835
0.24506 0.00106 0.37805
0.24488 -0.00132 0.37778
0.24475 -0.00372 0.37763
0.24455 -0.0061 0.37738
0.24444 -0.0085 0.3773
0.24435 -0.0109 0.3773
0.24448 -0.01329 0.37742
0.24469 -0.01569 0.37753
0.24499 -0.01808 0.37762
0.24543 -0.02044 0.3777
0.24573 -0.02283 0.37767
0.24588 -0.02523 0.37755
0.24587 -0.02762 0.3773
0.24582 -0.03002 0.37714
0.24579 -0.03242 0.37692
0.2458 -0.0348 0.37658
0.24517 0.01922 0.37686
0.24538 0.01683 0.37687
0.24551 0.01444 0.37668
0.24544 0.01207 0.37638
0.2454 0.00967 0.37623
0.24576 0.00729 0.37634
0.24649 0.00499 0.37646
0.24674 0.0026 0.37621
0.24675 0.00021 0.3759
0.24659 -0.00218 0.37565
0.24605 -0.00449 0.37522
0.24572 -0.00683 0.37491
0.24561 -0.00922 0.37483
0.24556 -0.01161 0.37485
0.24577 -0.01399 0.37501
0.24616 -0.01634 0.37522
0.24667 -0.01867 0.37544
0.24722 -0.02099 0.3756
0.24765 -0.02335 0.37568
0.248 -0.02572 0.37577
0.24803 -0.0281 0.37557
0.24793 -0.03048 0.37535
0.24788 -0.03286 0.37512
0.24788 -0.03523 0.37477
0.24658 0.02035 0.3747
0.2468 0.01795 0.37481
0.2468 0.01558 0.37469
0.24679 0.01322 0.37441
0.24691 0.01086 0.37422
0.24724 0.0085 0.37433
0.24768 0.00617 0.37451
0.24794 0.0038 0.3743
0.24799 0.00145 0.3739
0.24798 -0.00091 0.37357
0.24762 -0.00324 0.3732
0.24714 -0.00554 0.37283
0.24691 -0.00788 0.37257
0.24682 -0.01025 0.3725
0.24685 -0.01263 0.37255
0.2472 -0.01497 0.37278
0.24779 -0.01724 0.37311
0.24839 -0.01952 0.37339
0.24906 -0.02179 0.37362
0.2496 -0.0241 0.3738
0.25009 -0.02642 0.37404
0.25019 -0.0288 0.37393
0.25011 -0.03116 0.37374
0.24999 -0.03352 0.37342
0.25001 -0.03587 0.37311
0.24799 0.01897 0.37256
0.24798 0.0166 0.37254
0.24807 0.01425 0.37247
0.24843 0.01193 0.37244
0.2489 0.00963 0.37252
0.24931 0.00729 0.37272
0.24938 0.00491 0.37257
0.24929 0.00259 0.3721
0.24927 0.00027 0.37166
0.24907 -0.00204 0.3712
0.24868 -0.00433 0.37081
0.24833 -0.00663 0.37051
0.24811 -0.00896 0.37026
0.24816 -0.01132 0.37025
0.24841 -0.01366 0.37044
0.24897 -0.01592 0.37081
0.24958 -0.01817 0.37115
0.25027 -0.02039 0.37149
0.25096 -0.02263 0.37173
0.25164 -0.02487 0.37203
0.25222 -0.02714 0.37236
0.25236 -0.02952 0.3723
0.25221 -0.03186 0.37202
0.25206 -0.03419 0.37168
0.24888 0.02012 0.37013
0.24921 0.01781 0.37021
0.24946 0.01549 0.37033
0.2498 0.01318 0.37044
0.25037 0.01092 0.37056
0.25085 0.00862 0.37066
0.25107 0.00626 0.37068
0.25097 0.00391 0.37041
0.25088 0.00161 0.36994
0.25069 -0.00066 0.36938
0.25036 -0.00291 0.36883
0.25004 -0.0052 0.36848
0.24977 -0.00751 0.36823
0.24968 -0.00984 0.36806
0.24984 -0.01217 0.36813
0.25031 -0.01444 0.36849
0.25099 -0.01663 0.36898
0.25167 -0.01883 0.36938
0.2523 -0.02106 0.36965
0.25295 -0.0233 0.36986
0.25376 -0.02546 0.37027
0.25435 -0.02774 0.37061
0.25436 -0.0301 0.37042
0.25421 -0.03242 0.37016
0.25403 -0.03472 0.36978
0.25046 0.0194 0.36782
0.25079 0.01711 0.36791
0.25112 0.01482 0.36807
0.25161 0.01256 0.36828
0.25218 0.01031 0.36841
0.25269 0.00803 0.36854
0.25286 0.00568 0.36852
0.25279 0.00335 0.36828
0.25263 0.00107 0.36776
0.25236 -0.00116 0.36714
0.25201 -0.00339 0.36657
0.25172 -0.00568 0.36625
0.25157 -0.00799 0.36611
0.25155 -0.01031 0.36599
0.25172 -0.01262 0.36607
0.25237 -0.0148 0.36659
0.25319 -0.01689 0.3672
0.25393 -0.01908 0.36767
0.25425 -0.02142 0.36765
0.25496 -0.02362 0.36792
0.25574 -0.02578 0.3683
0.25623 -0.02806 0.36853
0.25639 -0.03038 0.3685
0.2563 -0.03271 0.36832
0.25609 -0.03499 0.36791
0.25176 0.02093 0.36546
0.25195 0.01862 0.36547
0.25234 0.01636 0.3656
0.25283 0.01413 0.36586
0.25344 0.01192 0.36615
0.25412 0.00971 0.36638
0.25462 0.00743 0.36651
0.25471 0.00508 0.36642
0.25463 0.00277 0.36618
0.25449 0.0005 0.36569
0.2542 -0.00172 0.36504
0.25385 -0.00394 0.36447
0.25364 -0.00623 0.36423
0.25351 -0.00853 0.36411
0.25349 -0.01085 0.364
0.25378 -0.01315 0.36419
0.25435 -0.01534 0.36466
0.25505 -0.01749 0.36516
0.25568 -0.01968 0.36553
0.25631 -0.02189 0.3658
0.25712 -0.02403 0.36616
0.25783 -0.02622 0.36647
0.25819 -0.02852 0.36657
0.25834 -0.03083 0.36653
0.25832 -0.03314 0.36643
0.25822 -0.03544 0.36616
0.25316 0.01993 0.36314
0.25354 0.01767 0.36326
0.25402 0.01544 0.36345
0.25461 0.01325 0.36378
0.25537 0.01112 0.36417
0.25611 0.00894 0.36445
0.25662 0.00665 0.3646
0.25658 0.00432 0.3644
0.25652 0.00202 0.36418
0.25637 -0.00023 0.36369
0.2562 -0.00247 0.36318
0.256 -0.00473 0.3628
0.25573 -0.00699 0.36247
0.25561 -0.00929 0.36238
0.25579 -0.01157 0.36251
0.25611 -0.01383 0.36275
0.25652 -0.01608 0.36302
0.25703 -0.0183 0.36332
0.25775 -0.02044 0.36377
0.25854 -0.02255 0.36421
0.25928 -0.02471 0.3645
0.25984 -0.02695 0.36465
0.26012 -0.02923 0.36466
0.26033 -0.03153 0.36469
0.26037 -0.03383 0.36466
0.26041 -0.03613 0.36457
0.25485 0.01884 0.36108
0.25538 0.01663 0.3613
0.25597 0.01445 0.36156
0.25658 0.01229 0.3619
0.25732 0.01017 0.36228
0.25805 0.008 0.36255
[...]
CELL_DATA 1446
SCALARS brightness_temperature float
LOOKUP_TABLE default
POINT_DATA 781
CELL_DATA 1446
SCALARS emission_angle float
LOOKUP_TABLE default
POINT_DATA 781
CELL_DATA 1446
SCALARS incidence_angle float
LOOKUP_TABLE default
POINT_DATA 781
CELL_DATA 1446
SCALARS phase_angle float
LOOKUP_TABLE default
POINT_DATA 781
CELL_DATA 1446
SCALARS local_solar_time float
LOOKUP_TABLE default
POINT_DATA 781
CELL_DATA 1446
SCALARS local_solar_time_normal_vector float
LOOKUP_TABLE default
CELL_DATA 1446
SCALARS pixel_x float
LOOKUP_TABLE default
POINT_DATA 781
CELL_DATA 1446
SCALARS pixel_y float
LOOKUP_TABLE default
POINT_DATA 781
CELL_DATA 1446
SCALARS longitude float
LOOKUP_TABLE default
POINT_DATA 781
CELL_DATA 1446
SCALARS latitude float
LOOKUP_TABLE default
