# vtk DataFile Version 3.0
SHAPE_sfm_50k_v20200323
ASCII
DATASET POLYDATA
POINTS 695 float
0.31526 -0.36993 0.06751
0.31369 -0.3729 0.0651
0.31612 -0.37072 0.06511
0.31455 -0.37367 0.0627
0.31711 -0.37163 0.06283
0.31559 -0.37455 0.06043
0.31818 -0.3726 0.06062
0.31908 -0.37346 0.05832
0.31649 -0.37542 0.05811
0.3198 -0.37427 0.05592
0.31726 -0.37631 0.05575
0.32058 -0.37521 0.05358
0.31803 -0.37723 0.05339
0.32146 -0.3762 0.0513
0.31886 -0.37816 0.05105
0.32233 -0.37721 0.04902
0.31979 -0.37926 0.04883
0.32287 -0.37821 0.04665
0.32037 -0.38034 0.04651
0.32354 -0.3792 0.0443
0.31799 -0.36811 0.06751
0.31898 -0.36918 0.06529
0.32 -0.37017 0.06307
0.32104 -0.37108 0.06084
0.32183 -0.37173 0.05842
0.32258 -0.37258 0.05605
0.32329 -0.3734 0.05365
0.32411 -0.37429 0.05131
0.32503 -0.37537 0.04909
0.32551 -0.37626 0.04666
0.32613 -0.37716 0.04427
0.32692 -0.37825 0.04201
0.32418 -0.3801 0.04189
0.32784 -0.3798 0.04007
0.32499 -0.38148 0.03979
0.32836 -0.38093 0.03773
0.32566 -0.38287 0.03766
0.32904 -0.38215 0.03551
0.32634 -0.3841 0.03544
0.32971 -0.38329 0.03324
0.32698 -0.38521 0.03314
0.33037 -0.38443 0.03098
0.32769 -0.38644 0.03092
0.33096 -0.38546 0.02864
0.322 -0.3681 0.0657
0.32284 -0.36867 0.06327
0.32375 -0.36931 0.0609
0.32453 -0.36995 0.05848
0.32517 -0.3706 0.05602
0.326 -0.37158 0.05371
0.32686 -0.37252 0.05142
0.32773 -0.37351 0.04916
0.32824 -0.37443 0.04676
0.3289 -0.37538 0.0444
0.32971 -0.37648 0.04215
0.33051 -0.37785 0.04006
0.33121 -0.37925 0.03796
0.33185 -0.38038 0.03568
0.33246 -0.3814 0.03334
0.33313 -0.38252 0.03106
0.33362 -0.38338 0.02863
0.33422 -0.38433 0.02626
0.33163 -0.3865 0.02632
0.33492 -0.38533 0.02394
0.33232 -0.38749 0.02398
0.3356 -0.38621 0.02157
0.33284 -0.38818 0.0215
0.3361 -0.38706 0.01914
0.33329 -0.38899 0.01904
0.33671 -0.3881 0.01681
0.33389 -0.39001 0.01668
0.33745 -0.38934 0.0146
0.33453 -0.39111 0.01438
0.33802 -0.39025 0.01218
0.33512 -0.39207 0.01202
0.33822 -0.39054 0.00955
0.33563 -0.39276 0.00955
0.33605 -0.39301 0.00696
0.33862 -0.39076 0.00698
0.33618 -0.39294 0.00434
0.33871 -0.39063 0.00438
0.33851 -0.3905 0.00178
0.33603 -0.39286 0.00172
0.33829 -0.39032 -0.00083
0.33572 -0.39259 -0.00087
0.33799 -0.38995 -0.0034
0.33543 -0.39223 -0.00345
0.33749 -0.38933 -0.0059
0.33496 -0.39164 -0.00597
0.33683 -0.38861 -0.00832
0.32478 -0.36647 0.06589
0.32557 -0.36695 0.06344
0.32646 -0.36753 0.06104
0.32724 -0.36813 0.05861
0.32801 -0.36901 0.05626
0.32882 -0.36995 0.05394
0.32969 -0.37089 0.05165
0.33055 -0.37185 0.04938
0.33116 -0.37294 0.04708
0.33182 -0.37385 0.04472
0.33267 -0.37504 0.04255
0.33336 -0.37619 0.04031
0.33399 -0.37744 0.03809
0.3346 -0.37851 0.03578
0.33522 -0.37953 0.03345
0.33584 -0.38056 0.03112
0.33649 -0.38163 0.02882
0.33709 -0.38254 0.02644
0.33783 -0.38359 0.02415
0.33849 -0.38444 0.02177
0.339 -0.38531 0.01935
0.33953 -0.38622 0.01696
0.34003 -0.38711 0.01455
0.34065 -0.38806 0.01216
0.34093 -0.38846 0.00956
0.34122 -0.38854 0.00696
0.3412 -0.3883 0.00435
0.34099 -0.38815 0.00176
0.34068 -0.38787 -0.00082
0.34035 -0.38746 -0.00336
0.3399 -0.38689 -0.00586
0.33932 -0.38626 -0.00832
0.32754 -0.36485 0.06624
0.32841 -0.36547 0.06386
0.32933 -0.36607 0.06148
0.33018 -0.3668 0.05911
0.33097 -0.36774 0.0568
0.33175 -0.36862 0.05446
0.3326 -0.36949 0.05215
0.33346 -0.37043 0.04986
0.33404 -0.37145 0.04753
0.33471 -0.37236 0.04517
0.33544 -0.37327 0.04283
0.33611 -0.37436 0.04055
0.33674 -0.37563 0.03835
0.33735 -0.37667 0.03603
0.33798 -0.37768 0.0337
0.3385 -0.37853 0.03128
0.33914 -0.37956 0.02896
0.33992 -0.38072 0.02674
0.34056 -0.38161 0.02436
0.34113 -0.38231 0.0219
0.34164 -0.38318 0.01949
0.34213 -0.38404 0.01707
0.34257 -0.38486 0.01463
0.34295 -0.38553 0.01213
0.34326 -0.38597 0.00958
0.34347 -0.38597 0.00698
0.34353 -0.3858 0.00439
0.34334 -0.38567 0.0018
0.34302 -0.38539 -0.00076
0.3427 -0.38499 -0.00331
0.34219 -0.38436 -0.00579
0.34167 -0.38378 -0.00827
0.33044 -0.36348 0.06659
0.33133 -0.36412 0.06421
0.33232 -0.36492 0.06193
0.33316 -0.36561 0.05957
0.33396 -0.36656 0.05727
0.33476 -0.36749 0.05497
0.33559 -0.36828 0.05263
0.33641 -0.36908 0.05029
0.33697 -0.37 0.04792
0.33763 -0.37087 0.04555
0.33836 -0.37176 0.04321
0.33901 -0.3728 0.04091
0.33957 -0.37392 0.03862
0.34017 -0.37494 0.0363
0.34068 -0.37573 0.03388
0.34117 -0.3765 0.03142
0.34184 -0.37756 0.02913
0.34255 -0.3786 0.02684
0.34317 -0.37945 0.02446
0.3437 -0.3801 0.02199
0.34423 -0.381 0.01961
0.34472 -0.38184 0.01719
0.34512 -0.38261 0.01473
0.34543 -0.38321 0.01222
0.34566 -0.38354 0.00966
0.34586 -0.38353 0.00708
0.34589 -0.38333 0.0045
0.34574 -0.38323 0.00191
0.34554 -0.38306 -0.00068
0.34503 -0.38248 -0.00317
0.34465 -0.38197 -0.00569
0.34419 -0.38145 -0.0082
0.3343 -0.36293 0.06456
0.33524 -0.36355 0.06221
0.3361 -0.36429 0.05987
0.33693 -0.36533 0.05763
0.33774 -0.36624 0.05535
0.33858 -0.36705 0.05303
0.3394 -0.36782 0.05069
0.33997 -0.36873 0.04832
0.34063 -0.36957 0.04596
0.34132 -0.37035 0.04358
0.34199 -0.37143 0.04131
0.34247 -0.37236 0.03893
0.34306 -0.37334 0.0366
0.34353 -0.37402 0.03413
0.3441 -0.3749 0.03175
0.34474 -0.37587 0.02942
0.34533 -0.3767 0.02704
0.346 -0.37762 0.0247
0.34656 -0.37831 0.02227
0.34699 -0.37903 0.0198
0.34747 -0.37987 0.0174
0.3479 -0.38068 0.01496
0.34815 -0.38117 0.01242
0.34828 -0.38135 0.00985
0.34839 -0.38122 0.00728
0.34841 -0.381 0.0047
0.34818 -0.38083 0.00214
0.34796 -0.38065 -0.00044
0.3476 -0.38021 -0.00296
0.34712 -0.37961 -0.00544
0.34658 -0.37901 -0.0079
0.33727 -0.36166 0.06459
0.33824 -0.36234 0.06228
0.33917 -0.36322 0.06003
0.33999 -0.36424 0.0578
0.34077 -0.36504 0.05547
0.34166 -0.36598 0.05323
0.3425 -0.36682 0.05094
0.34303 -0.36757 0.04852
0.34363 -0.36822 0.04609
0.34436 -0.36905 0.04374
0.34496 -0.36996 0.0414
0.34544 -0.3709 0.03904
0.34603 -0.37184 0.0367
0.34661 -0.37272 0.03434
0.3471 -0.37343 0.0319
0.34767 -0.37421 0.0295
0.34825 -0.375 0.02711
0.34895 -0.37596 0.0248
0.34979 -0.37716 0.02263
0.35014 -0.37774 0.02009
0.35044 -0.37822 0.01755
0.35079 -0.37888 0.01507
0.35106 -0.37938 0.01253
0.35117 -0.37952 0.00995
0.35125 -0.37931 0.00737
0.35117 -0.37893 0.00485
0.35081 -0.37861 0.00231
0.35068 -0.37856 -0.00029
0.35022 -0.378 -0.00277
0.34971 -0.37736 -0.00522
0.3492 -0.3768 -0.00769
0.34026 -0.36048 0.06443
0.34133 -0.3614 0.06226
0.34222 -0.36216 0.05996
0.34312 -0.36338 0.05785
0.34389 -0.36414 0.0555
0.34478 -0.36504 0.05326
0.34573 -0.36619 0.05111
0.34615 -0.36654 0.04856
0.34677 -0.36717 0.04613
0.34752 -0.36811 0.04383
0.34813 -0.36899 0.04149
0.34849 -0.3696 0.03901
0.34898 -0.37032 0.03657
0.34953 -0.37112 0.03418
0.35013 -0.372 0.03183
0.35076 -0.37289 0.02948
0.35126 -0.37348 0.02702
0.35186 -0.37425 0.02463
0.35246 -0.37502 0.02224
0.3529 -0.37575 0.01981
0.35333 -0.37645 0.01736
0.35355 -0.37691 0.01483
0.35361 -0.37713 0.01226
0.35371 -0.37726 0.00968
0.35432 -0.37776 0.00719
0.35416 -0.3773 0.00464
0.35361 -0.37664 0.00222
0.35327 -0.37632 -0.00032
0.35281 -0.37575 -0.00278
0.35235 -0.37516 -0.00525
0.35189 -0.37467 -0.00774
0.34423 -0.36007 0.06264
0.34313 -0.35908 0.06476
0.34521 -0.36104 0.06048
0.346 -0.36195 0.0582
0.34684 -0.36288 0.05595
0.34772 -0.36376 0.05371
0.34861 -0.36466 0.05148
0.34919 -0.36544 0.04911
0.34984 -0.36616 0.04672
0.35058 -0.36699 0.0444
0.35111 -0.36763 0.04197
0.35144 -0.36817 0.03948
0.35191 -0.36883 0.03703
0.35245 -0.36957 0.03463
0.35307 -0.37045 0.03229
0.3538 -0.37146 0.03
0.35419 -0.37184 0.02746
0.35467 -0.37239 0.02499
0.3551 -0.37291 0.02251
0.35547 -0.37356 0.02005
0.3557 -0.37401 0.01753
0.35579 -0.37436 0.01499
0.35607 -0.37477 0.01246
0.35619 -0.37494 0.00989
0.35686 -0.37543 0.00741
0.35675 -0.3751 0.00482
0.35634 -0.37461 0.00234
0.356 -0.37427 -0.00019
0.35549 -0.37362 -0.00262
0.35514 -0.37316 -0.00514
0.35445 -0.37238 -0.0075
0.34589 -0.35744 0.06481
0.34695 -0.35835 0.06266
0.348 -0.35941 0.06057
0.34883 -0.36039 0.05835
0.34969 -0.36136 0.05614
0.35063 -0.36232 0.05396
0.35153 -0.36322 0.05173
0.35214 -0.36403 0.04938
0.35281 -0.36479 0.04702
0.35352 -0.36547 0.04464
0.35396 -0.36596 0.04217
0.3543 -0.36651 0.03969
0.35475 -0.36711 0.03723
0.3553 -0.36785 0.03484
0.35585 -0.36858 0.03245
0.35647 -0.36936 0.03008
0.35708 -0.37004 0.02766
0.35737 -0.37032 0.02511
0.35774 -0.37075 0.02262
0.3579 -0.37119 0.02009
0.35807 -0.37159 0.01757
0.35815 -0.3719 0.01503
0.35825 -0.37215 0.01248
0.35843 -0.37237 0.00993
0.35866 -0.37247 0.00739
0.35875 -0.37232 0.00484
0.35869 -0.37214 0.00231
0.35833 -0.37176 -0.00019
0.35795 -0.37125 -0.00266
0.35764 -0.37081 -0.00516
0.35709 -0.3702 -0.0076
0.34849 -0.35557 0.06446
0.34947 -0.35638 0.06224
0.35048 -0.35738 0.06012
0.35149 -0.35856 0.05808
0.35235 -0.35951 0.05587
0.35328 -0.36044 0.05368
0.35401 -0.36113 0.05132
0.35463 -0.36195 0.04898
0.3552 -0.36259 0.04658
0.35601 -0.36332 0.04427
0.3565 -0.36386 0.04182
0.3569 -0.36449 0.03938
0.35742 -0.36517 0.03696
0.35805 -0.36597 0.03462
0.35857 -0.36663 0.0322
0.35907 -0.36722 0.02976
0.35936 -0.36754 0.02723
0.35948 -0.36769 0.02468
0.3597 -0.368 0.02216
0.36009 -0.36862 0.01971
0.36051 -0.36925 0.01726
0.36055 -0.36952 0.01472
0.36063 -0.36974 0.01217
0.36082 -0.36994 0.00964
0.36096 -0.36996 0.0071
0.36097 -0.36972 0.00456
0.36089 -0.36952 0.00203
0.36065 -0.36926 -0.00048
0.36035 -0.36882 -0.00297
0.36008 -0.36842 -0.00547
0.3597 -0.368 -0.00796
0.35082 -0.35338 0.06406
0.35188 -0.35426 0.06194
0.35273 -0.35509 0.05967
0.35374 -0.35627 0.05765
0.35456 -0.35717 0.05542
0.35535 -0.35796 0.05314
0.35617 -0.35873 0.05086
0.35682 -0.35956 0.04854
0.35745 -0.36024 0.04617
0.35817 -0.36088 0.04382
0.35876 -0.3615 0.04143
0.35924 -0.36219 0.03902
0.35986 -0.36296 0.03667
0.36029 -0.36354 0.03424
0.36052 -0.36393 0.03174
0.36083 -0.36436 0.02925
0.36116 -0.3647 0.02674
0.36166 -0.36513 0.02428
0.36209 -0.36562 0.02181
0.36247 -0.36624 0.01937
0.36274 -0.36672 0.01688
0.36296 -0.36715 0.01438
0.36327 -0.36758 0.01189
0.36334 -0.36767 0.00933
0.36339 -0.36757 0.00679
0.36346 -0.36738 0.00427
0.36332 -0.36711 0.00175
0.36315 -0.36693 -0.00077
[...]
CELL_DATA 1278
SCALARS brightness_temperature float
LOOKUP_TABLE default
POINT_DATA 695
CELL_DATA 1278
SCALARS emission_angle float
LOOKUP_TABLE default
POINT_DATA 695
CELL_DATA 1278
SCALARS incidence_angle float
LOOKUP_TABLE default
POINT_DATA 695
CELL_DATA 1278
SCALARS phase_angle float
LOOKUP_TABLE default
POINT_DATA 695
CELL_DATA 1278
SCALARS local_solar_time float
LOOKUP_TABLE default
POINT_DATA 695
CELL_DATA 1278
SCALARS local_solar_time_normal_vector float
LOOKUP_TABLE default
CELL_DATA 1278
SCALARS pixel_x float
LOOKUP_TABLE default
POINT_DATA 695
CELL_DATA 1278
SCALARS pixel_y float
LOOKUP_TABLE default
POINT_DATA 695
CELL_DATA 1278
SCALARS longitude float
LOOKUP_TABLE default
POINT_DATA 695
CELL_DATA 1278
SCALARS latitude float
LOOKUP_TABLE default
