# vtk DataFile Version 3.0
SHAPE_sfm_50k_v20200323
ASCII
DATASET POLYDATA
POINTS 1353 float
-0.12829 -0.01212 0.39592
-0.12573 -0.01416 0.3961
-0.12583 -0.01197 0.39719
-0.12817 -0.01427 0.39478
-0.12539 -0.01616 0.39472
-0.12457 -0.01796 0.39324
-0.12598 -0.01985 0.39046
-0.12364 -0.0199 0.39193
-0.12535 -0.02211 0.38955
-0.12295 -0.02211 0.39096
-0.12492 -0.02431 0.38854
-0.12257 -0.02435 0.38999
-0.12222 -0.0265 0.38885
-0.12462 -0.02651 0.38746
-0.12199 -0.02857 0.3875
-0.12311 -0.01378 0.39698
-0.12325 -0.01166 0.3982
-0.12282 -0.01588 0.39572
-0.12212 -0.01792 0.39451
-0.12129 -0.01999 0.39339
-0.12063 -0.0222 0.39247
-0.12016 -0.02434 0.39133
-0.1198 -0.02649 0.39017
-0.11958 -0.0286 0.38889
-0.11929 -0.03075 0.38769
-0.12174 -0.03075 0.38634
-0.11886 -0.03284 0.38641
-0.1214 -0.03297 0.38527
-0.12095 -0.03528 0.38444
-0.1184 -0.03513 0.38547
-0.11812 -0.03744 0.38463
-0.12067 -0.0376 0.38365
-0.11803 -0.03967 0.3836
-0.12062 -0.03988 0.38277
-0.11791 -0.04187 0.38251
-0.12049 -0.04204 0.38167
-0.11983 -0.04409 0.3805
-0.11736 -0.04408 0.38159
-0.11923 -0.04616 0.37931
-0.11683 -0.04624 0.38057
-0.11865 -0.04818 0.37801
-0.1162 -0.04816 0.37917
-0.11576 -0.05024 0.37781
-0.11828 -0.05037 0.37682
-0.11548 -0.05248 0.37673
-0.11804 -0.05267 0.37591
-0.11534 -0.05467 0.37559
-0.12051 -0.01333 0.39789
-0.12066 -0.01122 0.39917
-0.12024 -0.01551 0.39672
-0.1196 -0.01767 0.39566
-0.11895 -0.01995 0.39488
-0.11826 -0.02209 0.39388
-0.11773 -0.02418 0.39265
-0.11735 -0.02632 0.39145
-0.11718 -0.02847 0.39022
-0.11686 -0.03057 0.38896
-0.11641 -0.03266 0.38766
-0.11589 -0.03488 0.38662
-0.11553 -0.0371 0.38555
-0.11545 -0.03937 0.38453
-0.11538 -0.04164 0.38354
-0.1149 -0.04391 0.38272
-0.11439 -0.04608 0.38172
-0.11376 -0.048 0.38033
-0.1133 -0.05005 0.37896
-0.11295 -0.05221 0.3777
-0.1128 -0.0544 0.3765
-0.11263 -0.05665 0.37544
-0.11513 -0.05689 0.37449
-0.11244 -0.05895 0.37447
-0.11492 -0.05917 0.37349
-0.11221 -0.0613 0.37367
-0.11469 -0.06151 0.37267
-0.11225 -0.06368 0.37289
-0.11471 -0.06385 0.37185
-0.11248 -0.06603 0.37215
-0.11493 -0.06619 0.37106
-0.11284 -0.06828 0.37123
-0.11786 -0.01316 0.39879
-0.11799 -0.01097 0.39999
-0.11762 -0.0154 0.39769
-0.11705 -0.01767 0.39682
-0.11639 -0.01991 0.39597
-0.11571 -0.02208 0.39501
-0.11527 -0.02428 0.39394
-0.11489 -0.0264 0.39272
-0.11468 -0.0285 0.39139
-0.11434 -0.03058 0.39006
-0.11392 -0.03272 0.38883
-0.11338 -0.03492 0.38775
-0.11302 -0.03717 0.38672
-0.11291 -0.03941 0.38561
-0.11288 -0.0417 0.38464
-0.11239 -0.04395 0.38375
-0.11183 -0.04606 0.38262
-0.11128 -0.04816 0.38144
-0.11078 -0.05015 0.38001
-0.11043 -0.05231 0.37875
-0.11029 -0.05451 0.37755
-0.11011 -0.05673 0.3764
-0.10993 -0.05905 0.37543
-0.10971 -0.06142 0.37462
-0.10978 -0.06383 0.37392
-0.11005 -0.06622 0.37326
-0.11043 -0.06849 0.37238
-0.11059 -0.07073 0.37131
-0.11305 -0.07055 0.37023
-0.1109 -0.07293 0.37017
-0.11341 -0.07279 0.36921
-0.11139 -0.07516 0.36913
-0.11527 -0.01276 0.39982
-0.1154 -0.01054 0.40102
-0.11509 -0.01509 0.39885
-0.11463 -0.01746 0.39818
-0.11403 -0.01975 0.39745
-0.11337 -0.02196 0.39651
-0.11294 -0.02416 0.39543
-0.11251 -0.02622 0.39409
-0.11224 -0.02824 0.39263
-0.11189 -0.03034 0.3913
-0.11149 -0.03252 0.3901
-0.11097 -0.03475 0.38905
-0.11063 -0.03703 0.38804
-0.1105 -0.03924 0.38688
-0.11043 -0.04148 0.38581
-0.10988 -0.04366 0.38477
-0.10935 -0.04585 0.38371
-0.10881 -0.04799 0.38255
-0.10837 -0.05008 0.38126
-0.10803 -0.05224 0.38001
-0.10787 -0.05442 0.37875
-0.10766 -0.05659 0.3775
-0.10748 -0.05893 0.37652
-0.10729 -0.06133 0.37574
-0.10737 -0.06375 0.37505
-0.10765 -0.06615 0.37441
-0.10806 -0.06847 0.37362
-0.10822 -0.07071 0.37254
-0.10848 -0.07289 0.37131
-0.10892 -0.07509 0.37015
-0.10928 -0.07738 0.36916
-0.11175 -0.07744 0.36817
-0.10944 -0.07971 0.36826
-0.11188 -0.07972 0.36718
-0.10956 -0.08202 0.36735
-0.11193 -0.08196 0.36612
-0.10928 -0.08432 0.36646
-0.11158 -0.08421 0.36511
-0.11113 -0.08653 0.36422
-0.10878 -0.08657 0.36548
-0.11077 -0.089 0.36377
-0.10824 -0.08886 0.36455
-0.11035 -0.09144 0.36343
-0.10776 -0.09126 0.36393
-0.11269 -0.01263 0.40092
-0.1128 -0.01038 0.40209
-0.11256 -0.01501 0.40004
-0.11216 -0.01741 0.39943
-0.11154 -0.01969 0.39863
-0.11084 -0.02185 0.39758
-0.11036 -0.02402 0.39643
-0.10997 -0.02613 0.39516
-0.10972 -0.02821 0.39377
-0.10938 -0.03033 0.39244
-0.109 -0.03253 0.39126
-0.10847 -0.03474 0.39018
-0.1081 -0.037 0.38911
-0.10804 -0.03928 0.38805
-0.10793 -0.04147 0.38687
-0.10736 -0.04367 0.3858
-0.10683 -0.04589 0.38476
-0.10633 -0.04811 0.3837
-0.10596 -0.05028 0.38252
-0.10559 -0.05238 0.3812
-0.10541 -0.05452 0.37988
-0.10519 -0.0567 0.37861
-0.10499 -0.059 0.37752
-0.10478 -0.06138 0.37666
-0.10486 -0.06381 0.37594
-0.10512 -0.06621 0.37522
-0.10552 -0.06853 0.3744
-0.10572 -0.07083 0.37344
-0.10601 -0.07305 0.3723
-0.10643 -0.07523 0.37109
-0.10677 -0.07752 0.37006
-0.10698 -0.0799 0.36924
-0.10719 -0.08228 0.36849
-0.10697 -0.08464 0.36772
-0.10642 -0.08682 0.36662
-0.10575 -0.08895 0.36541
-0.10518 -0.09126 0.36452
-0.1101 -0.01262 0.402
-0.11019 -0.01035 0.40315
-0.10998 -0.01498 0.40108
-0.10951 -0.01731 0.40029
-0.10886 -0.01955 0.39938
-0.10821 -0.02183 0.39851
-0.10779 -0.02407 0.39749
-0.10743 -0.02622 0.39627
-0.1072 -0.0283 0.39487
-0.10685 -0.03041 0.39352
-0.10647 -0.03263 0.39234
-0.10598 -0.0349 0.39134
-0.10562 -0.03715 0.39027
-0.10553 -0.03939 0.3891
-0.1054 -0.04156 0.38786
-0.10484 -0.04379 0.38681
-0.10434 -0.04608 0.38586
-0.10389 -0.04834 0.38488
-0.10354 -0.05054 0.38373
-0.10325 -0.05273 0.38253
-0.10309 -0.05489 0.38124
-0.1028 -0.05696 0.37983
-0.10254 -0.05918 0.37859
-0.10228 -0.06153 0.37761
-0.10232 -0.06394 0.37678
-0.10254 -0.0663 0.37594
-0.10291 -0.0686 0.37499
-0.10313 -0.07095 0.37411
-0.10349 -0.07324 0.37313
-0.10393 -0.07545 0.37198
-0.10426 -0.07774 0.37093
-0.10449 -0.08013 0.37012
-0.10471 -0.08251 0.36937
-0.10447 -0.08485 0.36851
-0.10391 -0.08698 0.36731
-0.10324 -0.08913 0.36613
-0.10264 -0.09142 0.3652
-0.10759 -0.01261 0.40324
-0.10762 -0.0103 0.40427
-0.10745 -0.01494 0.40228
-0.10692 -0.01721 0.40133
-0.10625 -0.01946 0.40037
-0.10565 -0.0218 0.39959
-0.10529 -0.02409 0.39866
-0.10491 -0.02621 0.39739
-0.10467 -0.02829 0.39597
-0.10434 -0.03045 0.39465
-0.10398 -0.0327 0.39352
-0.10352 -0.03497 0.39253
-0.10311 -0.03716 0.39135
-0.10298 -0.03935 0.39009
-0.10287 -0.04157 0.38887
-0.10234 -0.04386 0.38788
-0.10192 -0.04623 0.38707
-0.10154 -0.04856 0.38622
-0.10124 -0.05078 0.38512
-0.1009 -0.05291 0.38379
-0.10078 -0.05511 0.38254
-0.1005 -0.0572 0.38117
-0.10012 -0.05927 0.37972
-0.09981 -0.06158 0.37864
-0.09982 -0.06397 0.37774
-0.10001 -0.06632 0.37684
-0.10034 -0.0686 0.37581
-0.10055 -0.07094 0.37485
-0.10092 -0.07325 0.37389
-0.1014 -0.0755 0.37281
-0.10174 -0.07779 0.37176
-0.10195 -0.08015 0.37087
-0.10213 -0.08249 0.36998
-0.10188 -0.08477 0.36899
-0.10132 -0.08692 0.3678
-0.10067 -0.08911 0.36667
-0.10005 -0.09136 0.36566
-0.10505 -0.01256 0.40438
-0.10504 -0.01022 0.40534
-0.10491 -0.01487 0.40339
-0.10432 -0.01709 0.40231
-0.10367 -0.01938 0.40142
-0.10307 -0.02171 0.40061
-0.10269 -0.02398 0.39961
-0.10235 -0.02615 0.39841
-0.10215 -0.0283 0.39708
-0.10187 -0.03053 0.39587
-0.10152 -0.03277 0.39475
-0.101 -0.03497 0.39366
-0.10057 -0.03718 0.39247
-0.10044 -0.03938 0.39124
-0.10034 -0.04159 0.39
-0.09984 -0.04388 0.389
-0.09944 -0.04627 0.38819
-0.09914 -0.04866 0.38745
-0.0988 -0.05084 0.38626
-0.09842 -0.0529 0.38484
-0.09828 -0.05505 0.38351
-0.098 -0.05713 0.38211
-0.09766 -0.05928 0.38077
-0.09734 -0.06159 0.37968
-0.09732 -0.06396 0.37871
-0.09751 -0.06632 0.3778
-0.09782 -0.06858 0.37674
-0.098 -0.0709 0.3757
-0.09837 -0.07321 0.37473
-0.09885 -0.07547 0.37366
-0.09921 -0.07776 0.37262
-0.0994 -0.08009 0.37166
-0.09955 -0.08238 0.37064
-0.09927 -0.08461 0.36953
-0.09873 -0.08678 0.36836
-0.09809 -0.08899 0.36727
-0.09746 -0.09125 0.36626
-0.1024 -0.01273 0.40521
-0.1024 -0.01041 0.40623
-0.10222 -0.015 0.40411
-0.10168 -0.01729 0.40318
-0.10104 -0.0196 0.40232
-0.10043 -0.02191 0.40146
-0.10005 -0.02419 0.40046
-0.09977 -0.02645 0.39937
-0.0996 -0.02863 0.39809
-0.09935 -0.03087 0.39691
-0.09904 -0.03316 0.39587
-0.09853 -0.0354 0.39482
-0.09815 -0.03767 0.39374
-0.09808 -0.03991 0.39259
-0.09792 -0.04204 0.39127
-0.09736 -0.04428 0.39017
-0.09694 -0.04664 0.38928
-0.09658 -0.04896 0.38839
-0.09625 -0.05113 0.38719
-0.09591 -0.05323 0.38584
-0.09576 -0.05536 0.38446
-0.09551 -0.05748 0.3831
-0.0952 -0.05966 0.3818
-0.09487 -0.06195 0.38069
-0.09481 -0.06427 0.37962
-0.09497 -0.06661 0.37864
-0.09529 -0.0689 0.3776
-0.09547 -0.07122 0.37658
-0.09584 -0.07353 0.37559
-0.09632 -0.07577 0.37452
-0.09667 -0.07805 0.37346
-0.09685 -0.08036 0.37245
-0.09698 -0.08261 0.37134
-0.09667 -0.08478 0.37012
-0.09612 -0.08695 0.36892
-0.0955 -0.08921 0.36788
-0.09489 -0.09149 0.36691
-0.0997 -0.013 0.40592
-0.09971 -0.01069 0.407
-0.09956 -0.01533 0.40493
-0.09905 -0.01764 0.40405
-0.09842 -0.01995 0.4032
-0.09781 -0.02226 0.40234
-0.09743 -0.02453 0.4013
-0.09712 -0.02674 0.40011
-0.097 -0.02899 0.39891
-0.09678 -0.03128 0.39782
-0.0965 -0.03359 0.3968
-0.09606 -0.03593 0.39591
-0.09585 -0.03832 0.39508
-0.09583 -0.04059 0.39399
-0.09564 -0.04269 0.39261
-0.0951 -0.04496 0.39157
-0.09463 -0.04729 0.39064
-0.09418 -0.04954 0.38964
-0.09381 -0.05166 0.38838
-0.09347 -0.05373 0.38696
-0.09326 -0.05577 0.38544
-0.09302 -0.05791 0.38406
-0.09276 -0.06014 0.38284
-0.09245 -0.06243 0.38174
-0.09237 -0.06474 0.38065
-0.09251 -0.06707 0.37961
-0.09283 -0.06937 0.37858
-0.09301 -0.07169 0.37757
-0.09339 -0.07401 0.37659
-0.09387 -0.07624 0.37551
-0.09419 -0.07847 0.37434
-0.09434 -0.08073 0.37322
-0.09445 -0.08297 0.37206
-0.09412 -0.08512 0.37079
-0.09357 -0.0873 0.36958
-0.09296 -0.08956 0.36856
-0.09236 -0.09182 0.36755
-0.09703 -0.01108 0.4078
-0.09703 -0.01342 0.40674
-0.09692 -0.01577 0.40576
-0.09643 -0.01809 0.40488
-0.09579 -0.0204 0.40401
-0.09517 -0.0227 0.40312
-0.09477 -0.02495 0.40203
-0.09448 -0.0272 0.40086
[...]
CELL_DATA 2554
SCALARS brightness_temperature float
LOOKUP_TABLE default
POINT_DATA 1353
CELL_DATA 2554
SCALARS emission_angle float
LOOKUP_TABLE default
POINT_DATA 1353
CELL_DATA 2554
SCALARS incidence_angle float
LOOKUP_TABLE default
POINT_DATA 1353
CELL_DATA 2554
SCALARS phase_angle float
LOOKUP_TABLE default
POINT_DATA 1353
CELL_DATA 2554
SCALARS local_solar_time float
LOOKUP_TABLE default
POINT_DATA 1353
CELL_DATA 2554
SCALARS local_solar_time_normal_vector float
LOOKUP_TABLE default
CELL_DATA 2554
SCALARS pixel_x float
LOOKUP_TABLE default
POINT_DATA 1353
CELL_DATA 2554
SCALARS pixel_y float
LOOKUP_TABLE default
POINT_DATA 1353
CELL_DATA 2554
SCALARS longitude float
LOOKUP_TABLE default
POINT_DATA 1353
CELL_DATA 2554
SCALARS latitude float
LOOKUP_TABLE default
