# vtk DataFile Version 3.0
SHAPE_sfm_50k_v20200323
ASCII
DATASET POLYDATA
POINTS 310 float
0.50009 0.01953 0.0017
0.50095 0.01736 -0.00164
0.5005 0.02037 -0.00118
0.50128 0.02077 -0.00404
0.5019 0.01778 -0.00444
0.50231 0.02082 -0.00684
0.50299 0.01783 -0.0072
0.5034 0.02066 -0.00962
0.50343 0.02178 -0.01832
0.50334 0.01973 -0.02161
0.50317 0.02279 -0.02113
0.50279 0.02045 -0.02444
0.50254 0.02351 -0.02395
0.50201 0.02314 -0.02684
0.50244 0.02009 -0.02735
0.50173 0.02217 -0.02967
0.49389 0.01832 0.01172
0.49538 0.021 0.0097
0.49368 0.02131 0.01217
0.4957 0.01801 0.00933
0.49671 0.0211 0.00702
0.49708 0.0181 0.00666
0.49875 0.01862 0.00423
0.49801 0.02158 0.00438
0.49921 0.02248 0.00182
0.49985 0.02335 -0.00097
0.50065 0.02378 -0.00382
0.50149 0.02378 -0.00669
0.50273 0.02366 -0.00942
0.50286 0.0235 -0.0124
0.50377 0.02055 -0.01259
0.50412 0.02105 -0.0155
0.5031 0.02401 -0.01528
0.50298 0.02483 -0.0181
0.50266 0.02584 -0.02088
0.50219 0.02659 -0.02373
0.5018 0.02624 -0.02664
0.50152 0.02527 -0.02946
0.50124 0.02473 -0.0324
0.5015 0.02163 -0.03261
0.50073 0.02438 -0.03531
0.49489 0.02399 0.00985
0.49356 0.02431 0.01252
0.49617 0.02409 0.00716
0.49744 0.02458 0.00452
0.4984 0.02544 0.00184
0.49912 0.02634 -0.00091
0.4999 0.02677 -0.00377
0.50071 0.02676 -0.00666
0.50151 0.02654 -0.00952
0.50226 0.02655 -0.01236
0.50274 0.0271 -0.01518
0.50265 0.02792 -0.01801
0.50228 0.02893 -0.0208
0.50196 0.02969 -0.02366
0.50159 0.02933 -0.02658
0.50139 0.02837 -0.0294
0.5011 0.02785 -0.03234
0.50061 0.02754 -0.03532
0.492 0.0248 0.01505
0.49328 0.0273 0.01218
0.4917 0.02776 0.01469
0.49463 0.027 0.00954
0.49593 0.02712 0.00686
0.49704 0.0276 0.00416
0.49787 0.02845 0.00144
0.49868 0.02938 -0.00128
0.49945 0.02981 -0.00413
0.50035 0.02984 -0.00699
0.50117 0.02966 -0.00985
0.50198 0.02965 -0.01268
0.50249 0.03019 -0.01548
0.50217 0.03099 -0.01829
0.50188 0.032 -0.0211
0.50173 0.03277 -0.02396
0.50137 0.03241 -0.02688
0.50067 0.03138 -0.02958
0.49953 0.03058 -0.03225
0.49881 0.03016 -0.03512
0.49317 0.03028 0.01166
0.49184 0.03077 0.01428
0.49454 0.03 0.00902
0.49596 0.03014 0.00642
0.49689 0.03062 0.00365
0.4977 0.03149 0.00093
0.49859 0.03243 -0.00176
0.49938 0.03287 -0.0046
0.50026 0.0329 -0.00747
0.50158 0.03274 -0.01016
0.50218 0.03274 -0.01305
0.5022 0.03326 -0.0159
0.50188 0.03407 -0.01871
0.50166 0.03509 -0.02151
0.5015 0.03583 -0.02437
0.50091 0.03545 -0.02723
0.49989 0.03438 -0.0298
0.49855 0.03358 -0.03237
0.49762 0.03306 -0.03517
0.49291 0.03327 0.01126
0.49158 0.03374 0.01388
0.49439 0.03301 0.00868
0.49562 0.03315 0.006
0.49669 0.03365 0.00329
0.49771 0.03455 0.00067
0.49851 0.03549 -0.00204
0.49941 0.03595 -0.00484
0.50025 0.03597 -0.0077
0.50144 0.03581 -0.01043
0.50234 0.03584 -0.01325
0.50214 0.03635 -0.01613
0.50191 0.03718 -0.01895
0.5019 0.03819 -0.02175
0.50129 0.03892 -0.02454
0.50037 0.03851 -0.0273
0.4995 0.03746 -0.02992
0.49849 0.03672 -0.03262
0.49003 0.03413 0.0164
0.49113 0.0367 0.01346
0.48978 0.0371 0.01607
0.49257 0.03626 0.01089
0.49409 0.03602 0.00834
0.49542 0.03617 0.0057
0.49669 0.0367 0.00308
0.49764 0.0376 0.00043
0.49841 0.03855 -0.00228
0.49939 0.03902 -0.00503
0.50025 0.03904 -0.00788
0.50131 0.03889 -0.01066
0.50187 0.03888 -0.01358
0.50218 0.03944 -0.01641
0.50207 0.04027 -0.01923
0.50179 0.04129 -0.02203
0.50086 0.04197 -0.02476
0.50007 0.04159 -0.02757
0.49923 0.04053 -0.0302
0.49837 0.0398 -0.03294
0.48956 0.04005 0.0155
0.49089 0.03965 0.01286
0.49262 0.03926 0.01045
0.494 0.03901 0.00784
0.49527 0.03917 0.00517
0.49641 0.03969 0.00249
0.49734 0.0406 -0.00017
0.49814 0.04155 -0.00285
0.49879 0.04197 -0.00569
0.49973 0.042 -0.00852
0.50073 0.04186 -0.01131
0.50122 0.04183 -0.01425
0.50159 0.04242 -0.01705
0.50123 0.04318 -0.01986
0.50061 0.04412 -0.02264
0.50032 0.04495 -0.02545
0.49973 0.04458 -0.02831
0.49893 0.04352 -0.03095
0.49819 0.04279 -0.03373
0.48957 0.04301 0.01492
0.49095 0.04262 0.01231
0.49232 0.04218 0.00971
0.49388 0.04199 0.00719
0.49523 0.04218 0.00458
0.49644 0.04271 0.00194
0.49725 0.0436 -0.00075
0.4977 0.04451 -0.00353
0.49805 0.04485 -0.00646
0.49893 0.04487 -0.00932
0.49999 0.04476 -0.01209
0.50053 0.04475 -0.01499
0.5005 0.04523 -0.01784
0.50008 0.04598 -0.02064
0.49974 0.04701 -0.02342
0.49953 0.04784 -0.02624
0.49898 0.04747 -0.02911
0.4986 0.04646 -0.03187
0.4883 0.04301 0.0176
0.48928 0.04598 0.01485
0.48804 0.04598 0.01754
0.4906 0.04559 0.01221
0.49182 0.04516 0.00951
0.49373 0.045 0.00717
0.49543 0.04522 0.00473
0.49619 0.04573 0.00189
0.49664 0.04659 -0.00088
0.49675 0.04744 -0.00372
0.49723 0.04783 -0.00664
0.49806 0.04782 -0.00949
0.49903 0.04767 -0.01229
0.49969 0.04771 -0.01515
0.49976 0.04823 -0.01803
0.49957 0.04903 -0.02087
0.49942 0.05009 -0.02364
0.49891 0.05086 -0.02646
0.49798 0.05038 -0.02923
0.49783 0.04944 -0.03204
0.48872 0.04885 0.01552
0.4876 0.04886 0.01826
0.48999 0.04848 0.01285
0.49122 0.04807 0.01016
0.49286 0.04787 0.00765
0.49441 0.04808 0.00513
0.49546 0.04864 0.00245
0.49599 0.04953 -0.0003
0.49625 0.05046 -0.0031
0.49677 0.05086 -0.00599
0.4973 0.05081 -0.00889
0.49805 0.0506 -0.01177
0.49911 0.0507 -0.01456
0.49929 0.05124 -0.01747
0.49899 0.05202 -0.02031
0.49857 0.05301 -0.02307
0.49822 0.05386 -0.02591
0.49726 0.05334 -0.02868
0.49712 0.05239 -0.03148
0.48828 0.05177 0.0161
0.48957 0.0514 0.01344
0.49119 0.05103 0.01095
0.49225 0.05081 0.00817
0.4936 0.05099 0.00552
0.49474 0.05157 0.00287
0.4955 0.05252 0.00018
0.49625 0.05349 -0.00252
0.49681 0.0539 -0.00539
0.49731 0.05386 -0.0083
0.49786 0.05365 -0.01121
0.49852 0.0537 -0.0141
0.49851 0.05421 -0.017
0.49814 0.05496 -0.01983
0.49767 0.05594 -0.0226
0.4966 0.05652 -0.02532
0.49646 0.0563 -0.02827
0.49652 0.05541 -0.03109
0.48707 0.05176 0.0188
0.48782 0.05472 0.0162
0.48664 0.05472 0.01892
0.48915 0.05436 0.01357
0.49048 0.05398 0.01093
0.49185 0.05381 0.0083
0.49319 0.05401 0.00565
0.49414 0.05457 0.0029
0.49498 0.05552 0.00024
0.49601 0.05655 -0.00237
0.49669 0.05696 -0.00523
0.49712 0.05692 -0.00816
0.49749 0.05671 -0.01109
0.4977 0.05669 -0.01404
0.4975 0.05714 -0.01694
0.49712 0.05789 -0.01977
0.49663 0.05887 -0.02252
0.49593 0.05958 -0.02533
0.49592 0.05937 -0.02827
0.49579 0.05842 -0.03106
0.48716 0.05763 0.01645
0.48609 0.05764 0.01921
0.48833 0.05725 0.01375
0.48957 0.05684 0.01108
0.49114 0.05675 0.00854
0.4924 0.05695 0.00587
0.49318 0.05745 0.00305
0.49387 0.05837 0.00032
0.49462 0.05932 -0.00237
0.49555 0.05981 -0.0051
0.49616 0.05982 -0.00796
0.4967 0.05968 -0.01087
0.49675 0.05962 -0.01382
0.49643 0.06004 -0.01672
0.49603 0.06078 -0.01955
0.49562 0.06179 -0.0223
0.49544 0.06266 -0.02515
0.49509 0.06236 -0.02804
0.495 0.06141 -0.03083
0.48619 0.06045 0.01653
0.48526 0.06049 0.01934
0.48727 0.06005 0.01381
0.48843 0.05963 0.0111
0.49002 0.05956 0.00859
0.4913 0.05979 0.00595
0.49211 0.06031 0.00316
0.49281 0.06126 0.00046
0.49387 0.06231 -0.00209
0.49441 0.06266 -0.00497
0.49505 0.06269 -0.00786
0.49531 0.06244 -0.0108
0.49562 0.06249 -0.01371
0.49534 0.06293 -0.01655
0.49498 0.0637 -0.01936
0.49481 0.06478 -0.02212
0.49414 0.06548 -0.02493
0.49367 0.06513 -0.02782
0.49387 0.06429 -0.03064
0.48396 0.06309 0.01862
0.48514 0.06319 0.01592
0.48629 0.06283 0.01322
0.48757 0.06248 0.01057
0.48897 0.06235 0.00797
0.49028 0.0626 0.00535
0.49158 0.06331 0.00281
0.49275 0.06442 0.00031
0.49301 0.06522 -0.00258
0.49335 0.0655 -0.0055
0.49367 0.06539 -0.00844
0.49405 0.0652 -0.01136
0.49428 0.06523 -0.01427
0.49413 0.06575 -0.01707
0.49407 0.06662 -0.01987
0.49366 0.06763 -0.02262
0.49321 0.0684 -0.02546
0.49296 0.06812 -0.02838
0.49289 0.06718 -0.03117
0.48668 0.06533 0.01011
0.4881 0.06523 0.00753
0.48933 0.06545 0.00486
POLYGONS 548 2192
3 0 1 2
3 1 3 2
3 1 4 3
3 4 5 3
3 4 6 5
3 6 7 5
3 8 9 10
3 9 11 10
3 10 11 12
3 11 13 12
3 14 15 13
3 16 17 18
3 16 19 17
3 19 20 17
3 19 21 20
3 21 22 20
3 20 22 23
3 22 0 23
3 23 0 24
3 0 2 24
3 24 2 25
3 2 3 25
3 25 3 26
3 3 27 26
3 3 5 27
3 5 28 27
3 5 7 28
3 7 29 28
3 7 30 29
3 30 31 29
3 29 31 32
3 31 8 32
3 32 8 33
3 8 10 33
3 33 10 34
3 10 12 34
3 34 12 35
3 12 36 35
3 12 13 36
3 13 37 36
3 13 15 37
3 15 38 37
3 15 39 38
3 39 40 38
3 18 41 42
3 18 17 41
3 17 43 41
3 17 20 43
3 20 23 43
3 43 23 44
3 23 24 44
3 44 24 45
3 24 25 45
3 45 25 46
3 25 26 46
3 46 26 47
3 26 48 47
3 26 27 48
3 27 49 48
3 27 28 49
3 28 50 49
3 28 29 50
3 29 32 50
3 50 32 51
3 32 33 51
3 51 33 52
3 33 34 52
3 52 34 53
3 34 35 53
3 53 35 54
3 35 55 54
3 35 36 55
3 36 56 55
3 36 37 56
3 37 57 56
3 37 38 57
3 38 58 57
3 38 40 58
3 59 60 61
3 59 42 60
3 42 62 60
3 42 41 62
3 41 43 62
3 62 43 63
3 43 44 63
3 63 44 64
3 44 45 64
3 64 45 65
3 45 46 65
3 65 46 66
3 46 47 66
3 66 47 67
3 47 48 67
3 67 48 68
3 48 49 68
3 68 49 69
3 49 50 69
3 69 50 70
3 50 51 70
3 70 51 71
3 51 52 71
3 71 52 72
3 52 53 72
3 72 53 73
3 53 54 73
3 73 54 74
3 54 75 74
3 54 55 75
3 55 76 75
3 55 56 76
3 56 77 76
3 56 57 77
3 57 78 77
3 57 58 78
3 61 79 80
3 61 60 79
3 60 62 79
3 79 62 81
3 62 63 81
3 81 63 82
3 63 64 82
3 82 64 83
3 64 65 83
3 83 65 84
3 65 66 84
3 84 66 85
3 66 67 85
3 85 67 86
3 67 68 86
3 86 68 87
3 68 69 87
3 87 69 88
3 69 70 88
3 88 70 89
3 70 71 89
3 89 71 90
3 71 72 90
3 90 72 91
3 72 73 91
3 91 73 92
3 73 74 92
3 92 74 93
3 74 75 93
3 93 75 94
3 75 95 94
3 75 76 95
3 76 96 95
3 76 77 96
3 77 97 96
3 77 78 97
3 80 98 99
3 80 79 98
3 79 100 98
3 79 81 100
3 81 82 100
3 100 82 101
3 82 83 101
3 101 83 102
3 83 84 102
3 102 84 103
3 84 85 103
3 103 85 104
3 85 86 104
3 104 86 105
3 86 87 105
3 105 87 106
3 87 107 106
3 87 88 107
3 88 89 107
3 107 89 108
3 89 90 108
3 108 90 109
3 90 91 109
3 109 91 110
3 91 92 110
3 110 92 111
3 92 93 111
3 111 93 112
3 93 113 112
3 93 94 113
3 94 114 113
3 94 95 114
3 95 115 114
3 95 96 115
3 116 117 118
3 116 99 117
3 99 119 117
3 99 98 119
3 98 120 119
3 98 100 120
3 100 101 120
3 120 101 121
3 101 102 121
3 121 102 122
3 102 103 122
3 122 103 123
3 103 104 123
3 123 104 124
3 104 105 124
3 124 105 125
3 105 106 125
3 125 106 126
3 106 127 126
3 106 107 127
3 107 108 127
3 127 108 128
3 108 109 128
3 128 109 129
3 109 110 129
3 129 110 130
3 110 111 130
3 130 111 131
3 111 112 131
3 131 112 132
3 112 133 132
3 112 113 133
3 113 134 133
3 113 114 134
3 114 135 134
3 114 115 135
3 118 117 136
3 136 117 137
3 117 138 137
3 117 119 138
3 119 120 138
3 138 120 139
3 120 121 139
3 139 121 140
3 121 122 140
3 140 122 141
3 122 123 141
3 141 123 142
3 123 124 142
3 142 124 143
3 124 125 143
3 143 125 144
3 125 126 144
3 144 126 145
3 126 127 145
3 145 127 146
3 127 128 146
3 146 128 147
3 128 129 147
3 147 129 148
3 129 130 148
3 148 130 149
3 130 131 149
3 149 131 150
3 131 132 150
3 150 132 151
3 132 133 151
3 151 133 152
3 133 153 152
3 133 134 153
3 134 135 153
3 153 135 154
3 136 137 155
3 155 137 156
3 137 138 156
3 156 138 157
3 138 139 157
3 157 139 158
3 139 140 158
3 158 140 159
3 140 141 159
3 159 141 160
3 141 142 160
3 160 142 161
3 142 143 161
3 161 143 162
3 143 144 162
3 162 144 163
3 144 145 163
3 163 145 164
3 145 146 164
3 164 146 165
3 146 147 165
3 165 147 166
3 147 148 166
3 166 148 167
3 148 149 167
3 167 149 168
3 149 150 168
3 168 150 169
3 150 151 169
3 169 151 170
3 151 152 170
3 170 152 171
3 152 172 171
3 152 153 172
3 153 154 172
3 173 174 175
3 173 155 174
3 155 176 174
3 155 156 176
3 156 177 176
3 156 157 177
3 157 178 177
3 157 158 178
3 158 159 178
3 178 159 179
3 159 160 179
3 179 160 180
3 160 161 180
3 180 161 181
3 161 162 181
3 181 162 182
3 162 163 182
3 182 163 183
3 163 164 183
3 183 164 184
3 164 185 184
3 164 165 185
3 165 166 185
3 185 166 186
3 166 167 186
3 186 167 187
3 167 168 187
3 187 168 188
3 168 169 188
3 188 169 189
3 169 170 189
3 189 170 190
3 170 191 190
3 170 171 191
3 171 192 191
3 171 172 192
3 175 193 194
3 175 174 193
3 174 195 193
3 174 176 195
3 176 196 195
3 176 177 196
3 177 197 196
3 177 178 197
3 178 198 197
3 178 179 198
3 179 199 198
3 179 180 199
3 180 181 199
3 199 181 200
3 181 182 200
3 200 182 201
3 182 202 201
3 182 183 202
3 183 203 202
3 183 184 203
3 184 204 203
3 184 185 204
3 185 205 204
3 185 186 205
3 186 206 205
3 186 187 206
3 187 188 206
3 206 188 207
3 188 189 207
3 207 189 208
3 189 190 208
3 208 190 209
3 190 210 209
3 190 191 210
3 191 211 210
3 191 192 211
3 194 193 212
3 193 213 212
3 193 195 213
3 195 214 213
3 195 196 214
3 196 215 214
3 196 197 215
3 197 216 215
3 197 198 216
3 198 199 216
3 216 199 217
3 199 200 217
3 217 200 218
3 200 201 218
3 218 201 219
3 201 220 219
3 201 202 220
3 202 221 220
3 202 203 221
3 203 222 221
3 203 204 222
3 204 223 222
3 204 205 223
3 205 206 223
3 223 206 224
3 206 207 224
3 224 207 225
3 207 208 225
3 225 208 226
3 208 209 226
3 226 209 227
3 209 228 227
3 209 210 228
3 210 229 228
3 210 211 229
3 230 231 232
3 230 212 231
3 212 233 231
3 212 213 233
3 213 234 233
3 213 214 234
3 214 235 234
3 214 215 235
3 215 236 235
3 215 216 236
3 216 217 236
3 236 217 237
3 217 218 237
3 237 218 238
3 218 219 238
3 238 219 239
3 219 220 239
3 239 220 240
3 220 241 240
3 220 221 241
3 221 242 241
3 221 222 242
3 222 243 242
3 222 223 243
3 223 224 243
3 243 224 244
3 224 225 244
3 244 225 245
3 225 226 245
3 245 226 246
3 226 227 246
3 246 227 247
3 227 248 247
3 227 228 248
3 228 249 248
3 228 229 249
3 232 250 251
3 232 231 250
3 231 252 250
3 231 233 252
3 233 253 252
3 233 234 253
3 234 254 253
3 234 235 254
3 235 255 254
3 235 236 255
3 236 237 255
3 255 237 256
3 237 238 256
3 256 238 257
3 238 239 257
3 257 239 258
3 239 240 258
3 258 240 259
3 240 260 259
3 240 241 260
3 241 261 260
3 241 242 261
3 242 262 261
3 242 243 262
3 243 244 262
3 262 244 263
3 244 245 263
3 263 245 264
3 245 246 264
3 264 246 265
3 246 247 265
3 265 247 266
3 247 267 266
3 247 248 267
3 248 268 267
3 248 249 268
3 251 269 270
3 251 250 269
3 250 271 269
3 250 252 271
3 252 272 271
3 252 253 272
3 253 273 272
3 253 254 273
3 254 274 273
3 254 255 274
3 255 256 274
3 274 256 275
3 256 257 275
3 275 257 276
3 257 258 276
3 276 258 277
3 258 259 277
3 277 259 278
3 259 279 278
3 259 260 279
3 260 280 279
3 260 261 280
3 261 281 280
3 261 262 281
3 262 263 281
3 281 263 282
3 263 264 282
3 282 264 283
3 264 265 283
3 283 265 284
3 265 266 284
3 284 266 285
3 266 286 285
3 266 267 286
3 267 287 286
3 267 268 287
3 270 269 288
3 288 269 289
3 269 271 289
3 289 271 290
3 271 291 290
3 271 272 291
3 272 273 291
3 291 273 292
3 273 274 292
3 292 274 293
3 274 275 293
3 293 275 294
3 275 276 294
3 294 276 295
3 276 277 295
3 295 277 296
3 277 278 296
3 296 278 297
3 278 279 297
3 297 279 298
3 279 280 298
3 298 280 299
3 280 281 299
3 299 281 300
3 281 282 300
3 300 282 301
3 282 283 301
3 301 283 302
3 283 284 302
3 302 284 303
3 284 285 303
3 303 285 304
3 285 286 304
3 304 286 305
3 286 306 305
3 286 287 306
3 290 291 307
3 291 292 307
3 307 292 308
3 292 293 308
3 308 293 309
3 293 294 309
CELL_DATA 548
SCALARS brightness_temperature float
LOOKUP_TABLE default
POINT_DATA 310
CELL_DATA 548
SCALARS emission_angle float
LOOKUP_TABLE default
POINT_DATA 310
CELL_DATA 548
SCALARS incidence_angle float
LOOKUP_TABLE default
POINT_DATA 310
CELL_DATA 548
SCALARS phase_angle float
LOOKUP_TABLE default
POINT_DATA 310
CELL_DATA 548
SCALARS local_solar_time float
LOOKUP_TABLE default
POINT_DATA 310
CELL_DATA 548
SCALARS local_solar_time_normal_vector float
LOOKUP_TABLE default
CELL_DATA 548
SCALARS pixel_x float
LOOKUP_TABLE default
POINT_DATA 310
CELL_DATA 548
SCALARS pixel_y float
LOOKUP_TABLE default
POINT_DATA 310
CELL_DATA 548
SCALARS longitude float
LOOKUP_TABLE default
POINT_DATA 310
CELL_DATA 548
SCALARS latitude float
LOOKUP_TABLE default
