# vtk DataFile Version 3.0
SHAPE_sfm_50k_v20200323
ASCII
DATASET POLYDATA
POINTS 2088 float
-0.24883 -0.22348 0.25117
-0.24874 -0.22619 0.25079
-0.24709 -0.2246 0.25176
-0.25036 -0.22505 0.24999
-0.25024 -0.22771 0.24954
-0.2519 -0.22657 0.24878
-0.25165 -0.22907 0.24799
-0.25339 -0.22794 0.24732
-0.25307 -0.23055 0.24658
-0.25488 -0.22946 0.24601
-0.25447 -0.23189 0.245
-0.25639 -0.23085 0.24461
-0.25591 -0.23329 0.24351
-0.2578 -0.23219 0.24307
-0.25729 -0.23454 0.24187
-0.25917 -0.23339 0.24138
-0.2585 -0.2359 0.24014
-0.26042 -0.23476 0.23968
-0.25995 -0.23729 0.23863
-0.26193 -0.23619 0.23827
-0.26147 -0.23876 0.23727
-0.26345 -0.23765 0.23694
-0.26303 -0.24015 0.23592
-0.26496 -0.23898 0.23549
-0.26436 -0.24153 0.23433
-0.26622 -0.24029 0.2338
-0.26569 -0.24279 0.23264
-0.26744 -0.24143 0.23196
-0.24682 -0.22697 0.25129
-0.24831 -0.22852 0.25003
-0.24984 -0.23001 0.24877
-0.25112 -0.23142 0.24716
-0.25253 -0.23281 0.24561
-0.25397 -0.23425 0.24416
-0.25539 -0.23556 0.24258
-0.25658 -0.23693 0.24086
-0.25795 -0.23826 0.23921
-0.25946 -0.23973 0.23782
-0.26105 -0.24115 0.23651
-0.26241 -0.24256 0.23496
-0.24639 -0.22938 0.2506
-0.24798 -0.23092 0.24945
-0.24923 -0.23235 0.24783
-0.25063 -0.23376 0.24628
-0.25204 -0.23522 0.24479
-0.25352 -0.23662 0.24334
-0.25474 -0.23803 0.24168
-0.25602 -0.23929 0.2399
-0.25746 -0.2407 0.23837
-0.25904 -0.24213 0.23702
-0.24602 -0.23164 0.25013
-0.24448 -0.23012 0.2514
-0.24733 -0.23316 0.24863
-0.24873 -0.2346 0.24708
-0.25014 -0.23609 0.24559
-0.25167 -0.23755 0.24424
-0.25292 -0.23901 0.24264
-0.2541 -0.24022 0.24075
-0.25545 -0.24159 0.23909
-0.24413 -0.23258 0.25077
-0.24545 -0.23413 0.24929
-0.24681 -0.23555 0.24769
-0.24821 -0.23706 0.24619
-0.24977 -0.23856 0.24489
-0.25109 -0.2401 0.2434
-0.24353 -0.23489 0.25013
-0.24485 -0.23631 0.24849
-0.2462 -0.2378 0.24692
-0.24768 -0.23926 0.24546
-0.243 -0.23716 0.24949
-0.24426 -0.2386 0.2478
-0.2457 -0.24006 0.24628
-0.24243 -0.23922 0.24901
-0.35332 -0.16751 0.19642
-0.35476 -0.1656 0.1941
-0.35422 -0.16799 0.19377
-0.35601 -0.16584 0.19155
-0.35544 -0.16821 0.1912
-0.35731 -0.16615 0.18906
-0.35677 -0.16853 0.18873
-0.34808 -0.16631 0.20549
-0.35012 -0.16533 0.20374
-0.3493 -0.16756 0.20331
-0.35141 -0.16643 0.20153
-0.35052 -0.16865 0.20104
-0.35259 -0.16713 0.1991
-0.35171 -0.16938 0.19864
-0.35287 -0.1699 0.19615
-0.35389 -0.17042 0.19359
-0.35487 -0.1706 0.19094
-0.35604 -0.17087 0.18838
-0.31698 -0.15834 0.22724
-0.31971 -0.15739 0.22615
-0.31909 -0.15949 0.22575
-0.32162 -0.15987 0.22455
-0.32225 -0.15779 0.22501
-0.32402 -0.16034 0.22319
-0.32614 -0.16095 0.22143
-0.32907 -0.15967 0.22045
-0.32839 -0.16178 0.21995
-0.33141 -0.16037 0.21901
-0.33068 -0.16246 0.21843
-0.33364 -0.16119 0.21752
-0.33298 -0.16333 0.21702
-0.33573 -0.16192 0.21576
-0.33533 -0.16423 0.21577
-0.33797 -0.16282 0.21426
-0.33751 -0.16511 0.21425
-0.34025 -0.16353 0.21277
-0.33965 -0.16579 0.21256
-0.34256 -0.16408 0.21129
-0.34175 -0.16626 0.21076
-0.34459 -0.16463 0.20944
-0.34387 -0.16689 0.20904
-0.34659 -0.16535 0.20763
-0.34583 -0.1676 0.2072
-0.34733 -0.16859 0.20507
-0.34864 -0.16992 0.20298
-0.34998 -0.17106 0.20081
-0.3513 -0.17182 0.19848
-0.35248 -0.17232 0.19601
-0.3535 -0.17282 0.19345
-0.35437 -0.173 0.19079
-0.35534 -0.17325 0.18812
-0.31071 -0.15634 0.23157
-0.31336 -0.15553 0.23048
-0.31284 -0.15766 0.23033
-0.31523 -0.15684 0.22886
-0.31471 -0.15899 0.22873
-0.31638 -0.16048 0.22704
-0.31831 -0.16154 0.22528
-0.32077 -0.16182 0.22389
-0.32315 -0.16226 0.22247
-0.32535 -0.16296 0.22082
-0.3277 -0.16392 0.21958
-0.32993 -0.1646 0.21802
-0.33219 -0.16545 0.21649
-0.33467 -0.16644 0.21554
-0.33674 -0.16732 0.2139
-0.33883 -0.16802 0.2122
-0.34103 -0.16855 0.21054
-0.34316 -0.16918 0.20882
-0.3451 -0.16989 0.20695
-0.34674 -0.17095 0.20494
-0.34828 -0.17234 0.20306
-0.34978 -0.17348 0.20101
-0.35103 -0.17422 0.19863
-0.3522 -0.17472 0.19614
-0.35298 -0.17519 0.19349
-0.35383 -0.1754 0.19081
-0.35487 -0.17571 0.18817
-0.30147 -0.15393 0.23636
-0.30402 -0.1528 0.23531
-0.30377 -0.15492 0.2351
-0.30623 -0.15398 0.23405
-0.30595 -0.1561 0.23379
-0.30849 -0.15511 0.23279
-0.30816 -0.15723 0.23245
-0.3104 -0.15848 0.23128
-0.31252 -0.1598 0.23003
-0.31441 -0.16115 0.22849
-0.31597 -0.1626 0.22668
-0.31781 -0.16365 0.22483
-0.32009 -0.16383 0.22318
-0.32241 -0.1642 0.22161
-0.32475 -0.16504 0.22022
-0.32714 -0.16606 0.21915
-0.32942 -0.16681 0.21771
-0.33156 -0.16764 0.21594
-0.33404 -0.16866 0.21503
-0.33636 -0.1697 0.21396
-0.33841 -0.17044 0.21227
-0.34042 -0.1709 0.21039
-0.34249 -0.17148 0.20857
-0.34444 -0.17219 0.2067
-0.34627 -0.17329 0.20487
-0.34798 -0.17471 0.20315
-0.34934 -0.17582 0.20099
-0.35054 -0.17657 0.19859
-0.35159 -0.17706 0.19606
-0.35236 -0.17754 0.1934
-0.35331 -0.1778 0.19075
-0.35458 -0.17818 0.18825
-0.28413 -0.14834 0.24816
-0.28612 -0.14805 0.24693
-0.28596 -0.15013 0.24702
-0.28805 -0.14939 0.24541
-0.28783 -0.15148 0.24545
-0.2901 -0.14999 0.24359
-0.28983 -0.15209 0.24357
-0.29229 -0.15049 0.24188
-0.29207 -0.15258 0.24191
-0.29438 -0.15309 0.24038
-0.29457 -0.15099 0.24027
-0.29682 -0.15193 0.23883
-0.29665 -0.15404 0.239
-0.29909 -0.15299 0.23753
-0.29894 -0.15511 0.23777
-0.3012 -0.15606 0.23642
-0.30341 -0.15704 0.23501
-0.30551 -0.15822 0.23356
-0.30773 -0.15936 0.23226
-0.30992 -0.1606 0.23103
-0.31202 -0.16192 0.22976
-0.31382 -0.16323 0.2281
-0.31522 -0.16458 0.2261
-0.31691 -0.16552 0.22408
-0.31918 -0.16572 0.22241
-0.32151 -0.16612 0.22083
-0.32383 -0.16695 0.21943
-0.32615 -0.16787 0.21814
-0.3285 -0.16875 0.21684
-0.33089 -0.16989 0.21577
-0.33344 -0.17096 0.21514
-0.33594 -0.17198 0.21448
-0.33819 -0.17272 0.21305
-0.33975 -0.1732 0.21075
-0.34164 -0.17374 0.20874
-0.34354 -0.17442 0.20678
-0.3453 -0.17548 0.20487
-0.34686 -0.17683 0.203
-0.34839 -0.17802 0.20102
-0.34984 -0.17886 0.19881
-0.35077 -0.17933 0.19622
-0.35169 -0.17988 0.19363
-0.35284 -0.1802 0.19108
-0.35413 -0.18059 0.18861
-0.28215 -0.14864 0.24944
-0.28393 -0.15041 0.24815
-0.28578 -0.1522 0.24709
-0.28766 -0.15357 0.24556
-0.28961 -0.15419 0.24365
-0.29181 -0.15469 0.24193
-0.29419 -0.15519 0.24048
-0.29647 -0.15614 0.23915
-0.29876 -0.15722 0.23795
-0.30097 -0.15818 0.23657
-0.30307 -0.15917 0.23502
-0.30512 -0.16036 0.23351
-0.30734 -0.16151 0.23222
-0.30949 -0.16275 0.23095
-0.3114 -0.16399 0.22937
-0.31304 -0.16521 0.22753
-0.31434 -0.16652 0.22544
-0.31602 -0.16746 0.2234
-0.31826 -0.16763 0.22168
-0.32063 -0.16811 0.2202
-0.32298 -0.169 0.21891
-0.32525 -0.16991 0.21748
-0.3277 -0.17093 0.21646
-0.33019 -0.17212 0.2158
-0.33275 -0.17318 0.21535
-0.33529 -0.1742 0.21484
-0.33774 -0.17499 0.21367
-0.33929 -0.17546 0.21133
-0.34085 -0.17599 0.20905
-0.34267 -0.17666 0.20701
-0.34436 -0.1777 0.20504
-0.34591 -0.17905 0.20316
-0.34752 -0.18026 0.20124
-0.34879 -0.18102 0.1989
-0.34988 -0.18157 0.19639
-0.35106 -0.18222 0.19393
-0.35242 -0.18259 0.19151
-0.35373 -0.18299 0.18907
-0.35511 -0.18361 0.18671
-0.27577 -0.14671 0.25361
-0.27817 -0.14587 0.25224
-0.27791 -0.14789 0.2522
-0.28022 -0.14718 0.25085
-0.27995 -0.14921 0.25083
-0.28185 -0.1507 0.24941
-0.28372 -0.15248 0.24827
-0.2856 -0.15426 0.24728
-0.28746 -0.15563 0.24574
-0.28945 -0.15628 0.24389
-0.29166 -0.15679 0.2422
-0.29396 -0.1573 0.24067
-0.29623 -0.15824 0.23933
-0.29846 -0.15931 0.23804
-0.30068 -0.16029 0.23668
-0.30276 -0.1613 0.23512
-0.30477 -0.16251 0.23358
-0.30694 -0.16366 0.23223
-0.309 -0.16489 0.23084
-0.31085 -0.16612 0.22921
-0.31234 -0.16729 0.22721
-0.31346 -0.16852 0.22497
-0.31499 -0.16935 0.22273
-0.31727 -0.16956 0.22103
-0.31968 -0.17008 0.21962
-0.32199 -0.17096 0.21825
-0.32437 -0.17203 0.21712
-0.32689 -0.17311 0.21639
-0.3294 -0.17429 0.2159
-0.33194 -0.17535 0.21549
-0.33439 -0.17636 0.21475
-0.33655 -0.17703 0.21319
-0.33856 -0.17768 0.21138
-0.34029 -0.17827 0.20927
-0.34194 -0.17892 0.2071
-0.34365 -0.17998 0.20516
-0.34515 -0.18132 0.20324
-0.34653 -0.18243 0.2011
-0.34779 -0.18322 0.19873
-0.34927 -0.18394 0.19649
-0.35055 -0.1846 0.1941
-0.35198 -0.18498 0.19173
-0.35335 -0.1854 0.18934
-0.35474 -0.18605 0.18699
-0.2674 -0.14471 0.26005
-0.2697 -0.14369 0.25858
-0.26935 -0.14564 0.25824
-0.27179 -0.14469 0.25698
-0.27145 -0.14668 0.2567
-0.27385 -0.14565 0.25537
-0.27356 -0.14766 0.25517
-0.27555 -0.14875 0.25353
-0.27764 -0.14992 0.25206
-0.27975 -0.15126 0.25081
-0.28174 -0.15276 0.24956
-0.28362 -0.15453 0.24849
-0.28534 -0.15632 0.24728
-0.28724 -0.15771 0.24579
-0.28932 -0.15836 0.24406
-0.29158 -0.15887 0.24247
-0.29395 -0.15938 0.24107
-0.29609 -0.16035 0.23959
-0.29821 -0.16142 0.23814
-0.30036 -0.1624 0.23667
-0.30246 -0.16344 0.23515
-0.30457 -0.16466 0.23379
-0.30665 -0.16582 0.23236
-0.30861 -0.16705 0.23084
-0.31032 -0.16825 0.22906
-0.31159 -0.16935 0.22687
-0.31268 -0.17062 0.22463
-0.31417 -0.1715 0.22238
-0.31636 -0.17162 0.22054
-0.31878 -0.17212 0.21913
-0.32115 -0.17306 0.21788
-0.3236 -0.17418 0.21703
-0.32613 -0.17527 0.21645
-0.32861 -0.17645 0.21596
-0.33112 -0.1775 0.21546
-0.33353 -0.17853 0.21453
-0.33555 -0.17908 0.21269
-0.33734 -0.17953 0.21058
-0.33928 -0.18033 0.20874
-0.34112 -0.18112 0.20683
-0.34272 -0.18211 0.20477
-0.34409 -0.1834 0.20272
-0.34542 -0.18454 0.20057
-0.34705 -0.18553 0.19854
-0.34871 -0.18629 0.19644
-0.35011 -0.18699 0.19415
-0.35153 -0.18739 0.1918
-0.35288 -0.18781 0.18939
-0.35439 -0.18849 0.18714
-0.26706 -0.14668 0.25985
-0.26909 -0.14765 0.25816
-0.27121 -0.14869 0.25667
-0.27332 -0.14967 0.25514
-0.27535 -0.15076 0.25356
-0.27747 -0.15195 0.25217
-0.27957 -0.15329 0.25093
-0.28165 -0.15479 0.24985
-0.28334 -0.15656 0.24852
-0.28503 -0.1584 0.24733
-0.28703 -0.1598 0.246
-0.28914 -0.16044 0.2443
-0.29139 -0.16094 0.2427
-0.29382 -0.16144 0.24142
-0.29591 -0.16241 0.23991
-0.2979 -0.16351 0.23829
-0.30003 -0.16452 0.2368
-0.30219 -0.16556 0.23538
-0.30426 -0.16678 0.23399
-0.30638 -0.16796 0.23264
-0.30829 -0.1692 0.23109
-0.30973 -0.17037 0.22903
-0.31091 -0.17148 0.22678
-0.3121 -0.17281 0.22463
-0.31368 -0.17374 0.2225
-0.31567 -0.17383 0.22048
[...]
CELL_DATA 3977
SCALARS brightness_temperature float
LOOKUP_TABLE default
POINT_DATA 2088
CELL_DATA 3977
SCALARS emission_angle float
LOOKUP_TABLE default
POINT_DATA 2088
CELL_DATA 3977
SCALARS incidence_angle float
LOOKUP_TABLE default
POINT_DATA 2088
CELL_DATA 3977
SCALARS phase_angle float
LOOKUP_TABLE default
POINT_DATA 2088
CELL_DATA 3977
SCALARS local_solar_time float
LOOKUP_TABLE default
POINT_DATA 2088
CELL_DATA 3977
SCALARS local_solar_time_normal_vector float
LOOKUP_TABLE default
CELL_DATA 3977
SCALARS pixel_x float
LOOKUP_TABLE default
POINT_DATA 2088
CELL_DATA 3977
SCALARS pixel_y float
LOOKUP_TABLE default
POINT_DATA 2088
CELL_DATA 3977
SCALARS longitude float
LOOKUP_TABLE default
POINT_DATA 2088
CELL_DATA 3977
SCALARS latitude float
LOOKUP_TABLE default
