# vtk DataFile Version 3.0
SHAPE_sfm_50k_v20200323
ASCII
DATASET POLYDATA
POINTS 1068 float
-0.20119 0.42866 -0.09569
-0.20293 0.4251 -0.0977
-0.20349 0.42663 -0.09529
-0.20051 0.42702 -0.09801
-0.20214 0.42341 -0.09999
-0.19964 0.42526 -0.10021
-0.20095 0.42141 -0.1018
-0.19847 0.42321 -0.10198
-0.19967 0.41948 -0.10356
-0.2115 0.43611 -0.07564
-0.20804 0.43615 -0.07808
-0.21086 0.43478 -0.07813
-0.20757 0.43517 -0.0808
-0.21037 0.43374 -0.08081
-0.20683 0.43338 -0.08298
-0.20973 0.4322 -0.08319
-0.2088 0.43075 -0.08551
-0.20587 0.43182 -0.08521
-0.20775 0.4291 -0.08765
-0.20502 0.43057 -0.08768
-0.20691 0.42757 -0.08995
-0.20435 0.42928 -0.09019
-0.20417 0.42824 -0.09293
-0.20645 0.42621 -0.09247
-0.20573 0.42458 -0.09477
-0.20512 0.42302 -0.09714
-0.20436 0.42136 -0.09943
-0.20324 0.41944 -0.10132
-0.20214 0.4177 -0.10337
-0.2178 0.44375 -0.05754
-0.21468 0.44378 -0.0605
-0.21761 0.44254 -0.06017
-0.21457 0.44245 -0.06307
-0.21748 0.44119 -0.06273
-0.21433 0.4411 -0.06561
-0.21732 0.44005 -0.06538
-0.21683 0.43899 -0.06803
-0.21381 0.43993 -0.0682
-0.21606 0.43773 -0.07052
-0.21308 0.43876 -0.07075
-0.21508 0.43616 -0.07276
-0.21233 0.43759 -0.07329
-0.21425 0.4347 -0.07512
-0.21368 0.43346 -0.07767
-0.21306 0.4322 -0.0802
-0.21254 0.43084 -0.08271
-0.21178 0.42961 -0.08527
-0.2106 0.42786 -0.08729
-0.20961 0.42615 -0.08938
-0.20887 0.42451 -0.09163
-0.20819 0.42295 -0.09397
-0.20757 0.42139 -0.09633
-0.20678 0.41973 -0.09859
-0.2058 0.41796 -0.10067
-0.20472 0.41628 -0.10275
-0.22873 0.45946 -0.01918
-0.23157 0.45752 -0.02135
-0.23187 0.45863 -0.01871
-0.22846 0.45839 -0.02185
-0.231 0.45671 -0.02405
-0.22782 0.45738 -0.02448
-0.22997 0.45614 -0.02666
-0.22675 0.45668 -0.02705
-0.22874 0.45563 -0.02926
-0.22171 0.45168 -0.03954
-0.22415 0.44981 -0.04154
-0.22479 0.45082 -0.03891
-0.22112 0.45078 -0.04223
-0.22352 0.44889 -0.04421
-0.22055 0.44996 -0.04495
-0.22298 0.44811 -0.04693
-0.22015 0.44943 -0.04778
-0.22252 0.44717 -0.04963
-0.2197 0.4485 -0.05051
-0.22199 0.44589 -0.05215
-0.21908 0.44705 -0.05295
-0.22133 0.44444 -0.05455
-0.21828 0.44523 -0.05509
-0.22089 0.44306 -0.05704
-0.22062 0.44168 -0.05956
-0.22045 0.44028 -0.06206
-0.22029 0.43915 -0.06473
-0.21976 0.43795 -0.06731
-0.21907 0.43676 -0.06989
-0.21787 0.43498 -0.0719
-0.21695 0.43343 -0.07416
-0.21634 0.43214 -0.07666
-0.21563 0.43079 -0.0791
-0.21504 0.42935 -0.08154
-0.21414 0.42798 -0.0839
-0.21318 0.42649 -0.08619
-0.21225 0.42488 -0.08839
-0.2115 0.42326 -0.09063
-0.21081 0.42172 -0.09297
-0.21009 0.42009 -0.09524
-0.20928 0.41844 -0.09747
-0.20841 0.41682 -0.09968
-0.20747 0.41531 -0.10193
-0.2065 0.41376 -0.10419
-0.23291 0.46065 -0.01343
-0.23239 0.45972 -0.0161
-0.23544 0.4584 -0.01579
-0.2349 0.45734 -0.0184
-0.23462 0.4563 -0.02106
-0.23398 0.45535 -0.02368
-0.23296 0.45476 -0.02627
-0.23171 0.45418 -0.0288
-0.23061 0.45351 -0.03139
-0.2275 0.45466 -0.03172
-0.22962 0.45214 -0.03373
-0.22644 0.45298 -0.03387
-0.22873 0.451 -0.03618
-0.2255 0.45165 -0.03624
-0.22787 0.44979 -0.03862
-0.22721 0.44872 -0.04121
-0.22645 0.44755 -0.04373
-0.22582 0.44662 -0.04637
-0.22527 0.44556 -0.04899
-0.22481 0.44443 -0.05158
-0.22434 0.44336 -0.05419
-0.22395 0.44213 -0.05675
-0.22385 0.44104 -0.05945
-0.22348 0.43925 -0.0617
-0.22296 0.43756 -0.06396
-0.22215 0.43609 -0.06628
-0.22143 0.43483 -0.06878
-0.22035 0.43326 -0.07096
-0.21942 0.43172 -0.0732
-0.2187 0.43033 -0.0756
-0.21807 0.42907 -0.0781
-0.21746 0.42764 -0.08051
-0.21669 0.42641 -0.08297
-0.21592 0.42512 -0.08546
-0.2148 0.42336 -0.08747
-0.21415 0.42188 -0.08983
-0.21345 0.42035 -0.09217
-0.21269 0.41871 -0.09439
-0.21196 0.41719 -0.09673
-0.21106 0.41555 -0.0989
-0.21011 0.41402 -0.10111
-0.20923 0.41259 -0.10343
-0.23806 0.45647 -0.01801
-0.23879 0.45814 -0.01578
-0.23763 0.45509 -0.02048
-0.23696 0.45411 -0.02306
-0.23582 0.45331 -0.02552
-0.23451 0.45264 -0.028
-0.23351 0.45211 -0.03064
-0.23261 0.45096 -0.0331
-0.23171 0.4498 -0.03554
-0.23096 0.44887 -0.03814
-0.23025 0.44769 -0.04065
-0.22943 0.44641 -0.04309
-0.22876 0.44543 -0.04569
-0.22818 0.44432 -0.04829
-0.2277 0.44317 -0.05087
-0.22722 0.44212 -0.05347
-0.22693 0.44101 -0.05611
-0.22649 0.4394 -0.05846
-0.2261 0.43763 -0.06071
-0.22529 0.43577 -0.06271
-0.22446 0.43432 -0.06502
-0.22348 0.4329 -0.06731
-0.22246 0.43138 -0.06953
-0.22168 0.42995 -0.07189
-0.22087 0.42851 -0.07422
-0.22016 0.42719 -0.07667
-0.21969 0.42587 -0.07916
-0.21906 0.42478 -0.08171
-0.21819 0.42342 -0.0841
-0.21734 0.42193 -0.08639
-0.21675 0.42054 -0.0888
-0.21612 0.41912 -0.09123
-0.21526 0.4174 -0.09336
-0.21448 0.41585 -0.09562
-0.21365 0.4143 -0.09788
-0.21273 0.41284 -0.10012
-0.21184 0.4114 -0.10241
-0.21085 0.41002 -0.10471
-0.24131 0.4559 -0.01756
-0.24206 0.45742 -0.01523
-0.24079 0.45433 -0.01988
-0.23994 0.45297 -0.02223
-0.23877 0.45214 -0.02465
-0.23741 0.45139 -0.02706
-0.23627 0.45066 -0.02958
-0.2355 0.44975 -0.03217
-0.23461 0.44862 -0.03462
-0.23379 0.44756 -0.03713
-0.23313 0.4465 -0.0397
-0.23236 0.44532 -0.04218
-0.23157 0.44416 -0.04467
-0.23101 0.44312 -0.04729
-0.23054 0.442 -0.04987
-0.22993 0.44077 -0.05236
-0.22939 0.43938 -0.05479
-0.22881 0.4377 -0.05702
-0.22816 0.4358 -0.05904
-0.22746 0.43403 -0.06115
-0.22667 0.43264 -0.0635
-0.22573 0.43127 -0.06583
-0.22478 0.4298 -0.06809
-0.22382 0.42828 -0.07031
-0.22307 0.42688 -0.07268
-0.22222 0.42549 -0.07502
-0.22164 0.42411 -0.07745
-0.2211 0.42309 -0.08004
-0.22048 0.42195 -0.08259
-0.21981 0.42064 -0.08503
-0.21924 0.41927 -0.08746
-0.21864 0.41791 -0.08991
-0.21798 0.41645 -0.09228
-0.21708 0.4148 -0.09444
-0.21617 0.41317 -0.09659
-0.21518 0.41165 -0.09876
-0.21436 0.41031 -0.10111
-0.21345 0.40904 -0.10349
-0.24404 0.45406 -0.01699
-0.24367 0.45278 -0.0195
-0.243 0.4518 -0.02208
-0.24179 0.45087 -0.02444
-0.24042 0.45012 -0.02683
-0.23917 0.44918 -0.02921
-0.23833 0.44817 -0.03173
-0.2375 0.44715 -0.03424
-0.23666 0.44608 -0.03674
-0.23592 0.44489 -0.03921
-0.23522 0.44385 -0.04177
-0.23437 0.44261 -0.04419
-0.23373 0.44147 -0.04672
-0.23324 0.44033 -0.04928
-0.23244 0.43891 -0.05162
-0.23182 0.43746 -0.05398
-0.23121 0.43577 -0.05618
-0.23063 0.43393 -0.05828
-0.22987 0.43213 -0.06034
-0.22889 0.43061 -0.06252
-0.22784 0.42918 -0.06475
-0.22689 0.42774 -0.06701
-0.22587 0.42619 -0.06917
-0.2249 0.42468 -0.07139
-0.2242 0.42339 -0.07383
-0.22368 0.42207 -0.0763
-0.22318 0.42108 -0.0789
-0.2228 0.42017 -0.08157
-0.22226 0.41899 -0.08413
-0.22163 0.41758 -0.08652
-0.22108 0.4163 -0.08899
-0.2205 0.41495 -0.09145
-0.21975 0.4135 -0.09381
-0.21874 0.41178 -0.09586
-0.21771 0.41023 -0.09799
-0.21684 0.40883 -0.10029
-0.21597 0.40759 -0.10269
-0.2151 0.40627 -0.10507
-0.2468 0.45227 -0.01718
-0.24641 0.45097 -0.01967
-0.24581 0.4501 -0.02231
-0.24469 0.44937 -0.02479
-0.24332 0.44861 -0.02715
-0.24209 0.44769 -0.02954
-0.24118 0.44654 -0.03198
-0.24043 0.44577 -0.03463
-0.2396 0.44468 -0.03712
-0.2387 0.44321 -0.03939
-0.23788 0.44197 -0.0418
-0.23704 0.44077 -0.04423
-0.23631 0.43951 -0.04665
-0.23551 0.43805 -0.04895
-0.23468 0.43663 -0.05127
-0.23412 0.43525 -0.05369
-0.23371 0.43377 -0.05609
-0.23327 0.43214 -0.0584
-0.2324 0.43021 -0.06032
-0.23122 0.42848 -0.06224
-0.23032 0.4272 -0.06465
-0.22898 0.42544 -0.06647
-0.22776 0.42377 -0.06843
-0.22674 0.42224 -0.07062
-0.22606 0.42098 -0.0731
-0.22565 0.41973 -0.07562
-0.22516 0.41877 -0.07824
-0.2251 0.4181 -0.08103
-0.22492 0.41727 -0.08383
-0.22407 0.41571 -0.08611
-0.2237 0.41468 -0.08872
-0.22315 0.41344 -0.09127
-0.22227 0.41184 -0.09351
-0.22131 0.41022 -0.09565
-0.22036 0.4088 -0.09792
-0.21936 0.40722 -0.10005
-0.21839 0.40585 -0.10232
-0.2175 0.40452 -0.10465
-0.24986 0.45148 -0.01543
-0.24939 0.4504 -0.01801
-0.24904 0.44918 -0.02054
-0.24844 0.44832 -0.02316
-0.24739 0.44774 -0.02571
-0.24598 0.44689 -0.02802
-0.24485 0.44623 -0.03054
-0.24412 0.44561 -0.03326
-0.24304 0.44394 -0.03535
-0.24199 0.44248 -0.03753
-0.24127 0.4413 -0.04002
-0.24029 0.43984 -0.04224
-0.23939 0.43855 -0.04459
-0.23853 0.43716 -0.04689
-0.23768 0.43566 -0.04913
-0.23687 0.43428 -0.05148
-0.23627 0.43287 -0.05386
-0.23597 0.43149 -0.05633
-0.23559 0.4299 -0.05871
-0.2348 0.42809 -0.06081
-0.23351 0.42629 -0.06261
-0.23218 0.42462 -0.06447
-0.23108 0.42307 -0.06656
-0.22977 0.42134 -0.0684
-0.22879 0.41983 -0.0706
-0.22791 0.41843 -0.07293
-0.22751 0.4172 -0.07547
-0.227 0.41625 -0.07809
-0.22668 0.4154 -0.08078
-0.22651 0.41451 -0.08348
-0.22635 0.41354 -0.08614
-0.22618 0.41269 -0.08885
-0.22577 0.41166 -0.09158
-0.22471 0.41002 -0.09381
-0.22381 0.40853 -0.09609
-0.2228 0.40703 -0.09828
-0.22176 0.40544 -0.10038
-0.22072 0.40401 -0.10257
-0.21985 0.40269 -0.10491
-0.25228 0.44942 -0.01633
-0.2519 0.44848 -0.01898
-0.25171 0.44759 -0.02165
-0.25115 0.44684 -0.02431
-0.25006 0.44617 -0.02681
-0.24872 0.44549 -0.0292
-0.24756 0.44475 -0.03167
-0.24668 0.44365 -0.0342
-0.24534 0.44171 -0.03589
-0.24427 0.44021 -0.03804
-0.24359 0.43905 -0.04055
-0.24255 0.43755 -0.04272
-0.24158 0.43618 -0.045
-0.24068 0.43476 -0.04726
-0.23982 0.43326 -0.04949
-0.2388 0.4317 -0.05164
-0.23809 0.43022 -0.05394
-0.23762 0.42871 -0.05629
-0.2372 0.42709 -0.0586
-0.23647 0.42533 -0.06072
-0.23527 0.42362 -0.06267
-0.23376 0.42188 -0.06433
-0.23265 0.42033 -0.06641
-0.23171 0.41887 -0.06862
-0.23093 0.41754 -0.07098
-0.23011 0.4162 -0.07335
-0.22999 0.41533 -0.07608
-0.22927 0.41414 -0.07856
-0.22825 0.41271 -0.0808
-0.22792 0.41176 -0.08343
-0.22785 0.41081 -0.08609
-0.22775 0.40996 -0.0888
-0.22767 0.40916 -0.09156
-0.22715 0.40809 -0.09429
-0.22608 0.40647 -0.09649
-0.22505 0.40502 -0.09867
-0.22406 0.40354 -0.10088
-0.223 0.4021 -0.10308
-0.22208 0.40074 -0.10539
-0.25496 0.44758 -0.01698
-0.25474 0.44695 -0.01971
-0.25478 0.44658 -0.02255
-0.25414 0.44567 -0.02518
-0.25318 0.44522 -0.02781
-0.25174 0.44431 -0.03018
-0.25036 0.44302 -0.03234
-0.24896 0.44125 -0.0341
-0.24776 0.43952 -0.03598
-0.24675 0.43808 -0.03818
-0.24591 0.43676 -0.04053
-0.24505 0.43549 -0.04291
-0.24394 0.43396 -0.04502
-0.24292 0.43242 -0.04715
[...]
CELL_DATA 1991
SCALARS brightness_temperature float
LOOKUP_TABLE default
POINT_DATA 1068
CELL_DATA 1991
SCALARS emission_angle float
LOOKUP_TABLE default
POINT_DATA 1068
CELL_DATA 1991
SCALARS incidence_angle float
LOOKUP_TABLE default
POINT_DATA 1068
CELL_DATA 1991
SCALARS phase_angle float
LOOKUP_TABLE default
POINT_DATA 1068
CELL_DATA 1991
SCALARS local_solar_time float
LOOKUP_TABLE default
POINT_DATA 1068
CELL_DATA 1991
SCALARS local_solar_time_normal_vector float
LOOKUP_TABLE default
CELL_DATA 1991
SCALARS pixel_x float
LOOKUP_TABLE default
POINT_DATA 1068
CELL_DATA 1991
SCALARS pixel_y float
LOOKUP_TABLE default
POINT_DATA 1068
CELL_DATA 1991
SCALARS longitude float
LOOKUP_TABLE default
POINT_DATA 1068
CELL_DATA 1991
SCALARS latitude float
LOOKUP_TABLE default
