# vtk DataFile Version 3.0
SHAPE_sfm_50k_v20200323
ASCII
DATASET POLYDATA
POINTS 582 float
-0.47329 0.09871 0.08873
-0.47453 0.10149 0.08628
-0.47501 0.0986 0.08636
-0.4758 0.10126 0.08366
-0.47633 0.09836 0.08376
-0.47759 0.09855 0.08115
-0.47715 0.10147 0.0811
-0.47907 0.09907 0.0787
-0.4703 0.09892 0.09371
-0.4714 0.09609 0.09128
-0.46992 0.09601 0.0938
-0.47177 0.09899 0.0912
-0.4734 0.09581 0.08915
-0.475 0.09568 0.08669
-0.47638 0.09545 0.08412
-0.47759 0.09562 0.08147
-0.47897 0.09612 0.07895
-0.48024 0.09641 0.07634
-0.48032 0.09937 0.07608
-0.48179 0.09655 0.07387
-0.48193 0.09952 0.07366
-0.48316 0.09671 0.07129
-0.4833 0.0997 0.07109
-0.48499 0.09694 0.06902
-0.48466 0.09989 0.06853
-0.48676 0.09736 0.06673
-0.48597 0.10017 0.06595
-0.48835 0.09737 0.06426
-0.4872 0.10002 0.06332
-0.4895 0.09738 0.06157
-0.48844 0.10009 0.06069
-0.49031 0.09776 0.05877
-0.48933 0.10054 0.05796
-0.49066 0.09833 0.05591
-0.49 0.10123 0.05521
-0.49109 0.09921 0.05317
-0.49061 0.10217 0.05253
-0.49159 0.09992 0.05041
-0.47138 0.09321 0.09169
-0.46996 0.09315 0.09423
-0.473 0.09291 0.08929
-0.47475 0.09277 0.08694
-0.47637 0.09254 0.08452
-0.47769 0.09271 0.08192
-0.47904 0.09319 0.07938
-0.48034 0.09347 0.07677
-0.48189 0.0936 0.0743
-0.48338 0.09376 0.07179
-0.48507 0.09397 0.0694
-0.48737 0.0945 0.06761
-0.4894 0.09468 0.0654
-0.49061 0.09467 0.06264
-0.49089 0.09489 0.05968
-0.49121 0.09546 0.05683
-0.49155 0.09631 0.05406
-0.49205 0.097 0.05129
-0.4927 0.09724 0.04847
-0.49226 0.10018 0.04761
-0.49344 0.09721 0.04565
-0.49286 0.10012 0.04476
-0.49423 0.09716 0.04284
-0.49361 0.10006 0.04194
-0.49499 0.09724 0.04001
-0.49447 0.10016 0.03916
-0.49576 0.09726 0.03719
-0.49527 0.1002 0.03634
-0.49683 0.09731 0.03446
-0.47136 0.09031 0.09198
-0.47 0.09026 0.09456
-0.47296 0.09 0.08955
-0.47473 0.08986 0.08723
-0.4764 0.08962 0.08484
-0.47787 0.08979 0.08232
-0.47944 0.09031 0.07991
-0.48089 0.0906 0.07739
-0.48222 0.09068 0.07479
-0.48369 0.09082 0.07226
-0.48528 0.091 0.0698
-0.48728 0.09144 0.0677
-0.48941 0.09153 0.06564
-0.49066 0.09155 0.06294
-0.49132 0.09188 0.06008
-0.49168 0.09246 0.05724
-0.49225 0.09335 0.05452
-0.49282 0.09406 0.05175
-0.49348 0.09429 0.04892
-0.49428 0.09428 0.04611
-0.49501 0.09421 0.04328
-0.49583 0.0943 0.04048
-0.49657 0.09431 0.03765
-0.49717 0.09425 0.03479
-0.47032 0.08738 0.09464
-0.47178 0.08743 0.09212
-0.47334 0.08711 0.08968
-0.47504 0.08695 0.0873
-0.47694 0.08675 0.08508
-0.47852 0.08694 0.08262
-0.47993 0.0874 0.0801
-0.48137 0.08767 0.07757
-0.48285 0.08778 0.07506
-0.48432 0.08791 0.07254
-0.48578 0.08804 0.07001
-0.48732 0.08843 0.06756
-0.48897 0.08853 0.06516
-0.49046 0.08851 0.06266
-0.49155 0.08883 0.05997
-0.49238 0.08947 0.05725
-0.49303 0.09038 0.05455
-0.49368 0.0911 0.0518
-0.49434 0.09133 0.04897
-0.49534 0.09138 0.04622
-0.496 0.09128 0.04336
-0.49686 0.09138 0.04057
-0.49761 0.0914 0.03774
-0.49836 0.09138 0.03491
-0.47138 0.08468 0.09483
-0.47258 0.08463 0.09216
-0.47409 0.08428 0.08969
-0.47584 0.08413 0.08734
-0.4778 0.08395 0.08518
-0.47961 0.0842 0.08287
-0.48078 0.08457 0.08019
-0.48243 0.0849 0.0778
-0.48392 0.085 0.07528
-0.48522 0.08506 0.07267
-0.48641 0.0851 0.07
-0.48768 0.08543 0.06739
-0.48915 0.0855 0.06486
-0.4908 0.08549 0.06245
-0.49208 0.08582 0.05983
-0.4933 0.08651 0.05725
-0.4939 0.08742 0.05452
-0.49448 0.08812 0.05174
-0.49528 0.08838 0.04896
-0.49615 0.08839 0.04617
-0.4969 0.08832 0.04334
-0.49764 0.08838 0.04051
-0.49846 0.08841 0.0377
-0.47337 0.08185 0.09252
-0.47211 0.08188 0.09517
-0.47481 0.08148 0.09001
-0.47644 0.08128 0.08758
-0.47824 0.08103 0.08527
-0.48015 0.0813 0.08307
-0.48156 0.08174 0.08054
-0.48319 0.08205 0.07813
-0.48466 0.08213 0.07559
-0.48583 0.08214 0.07291
-0.48691 0.08215 0.07018
-0.48806 0.08242 0.0675
-0.48959 0.0825 0.065
-0.49097 0.08245 0.06243
-0.49197 0.08276 0.0597
-0.49319 0.08342 0.05712
-0.49416 0.08434 0.05451
-0.49486 0.08506 0.05177
-0.49571 0.08532 0.049
-0.49671 0.08534 0.04625
-0.4975 0.08529 0.04343
-0.49825 0.08535 0.0406
-0.499 0.08536 0.03777
-0.49909 0.08836 0.03484
-0.4996 0.08531 0.0349
-0.47397 0.07903 0.09307
-0.47237 0.07898 0.09555
-0.47524 0.07863 0.09044
-0.47679 0.0784 0.08795
-0.47877 0.07819 0.08579
-0.48069 0.07845 0.0836
-0.48215 0.0789 0.08109
-0.48347 0.07911 0.07848
-0.48484 0.07916 0.07589
-0.4861 0.07919 0.07325
-0.4873 0.07921 0.07058
-0.48886 0.07955 0.06811
-0.49008 0.07954 0.06544
-0.49104 0.07941 0.06268
-0.49202 0.07971 0.05993
-0.49311 0.08037 0.05729
-0.49397 0.08127 0.05464
-0.49469 0.08198 0.05189
-0.4957 0.08223 0.04917
-0.49717 0.08228 0.04659
-0.49786 0.08223 0.04371
-0.49847 0.08226 0.04084
-0.49927 0.08228 0.03802
-0.49984 0.08223 0.03513
-0.47236 0.07611 0.09499
-0.47419 0.07614 0.09269
-0.47567 0.07576 0.09019
-0.47761 0.0756 0.08797
-0.48015 0.07558 0.08635
-0.48181 0.07572 0.08386
-0.48294 0.07605 0.08114
-0.48404 0.07621 0.07841
-0.48539 0.07624 0.07581
-0.48662 0.07624 0.07314
-0.48788 0.07626 0.0705
-0.48919 0.07654 0.06789
-0.49033 0.07652 0.06518
-0.49138 0.0764 0.06247
-0.49243 0.07669 0.05975
-0.49331 0.07732 0.05702
-0.4941 0.07822 0.05435
-0.49492 0.07892 0.05162
-0.49589 0.07917 0.04886
-0.49711 0.0792 0.04619
-0.49801 0.07916 0.04338
-0.4987 0.0792 0.04053
-0.49928 0.07921 0.03765
-0.47286 0.07337 0.09419
-0.47467 0.07339 0.09186
-0.47662 0.07303 0.08971
-0.47901 0.07296 0.08797
-0.48118 0.07277 0.08591
-0.48262 0.07289 0.08328
-0.48348 0.07321 0.08045
-0.48443 0.07336 0.07767
-0.48571 0.07337 0.07503
-0.48686 0.07336 0.07232
-0.48802 0.07338 0.06963
-0.48927 0.07365 0.06699
-0.49029 0.07364 0.06423
-0.49158 0.07348 0.06161
-0.49339 0.07378 0.05926
-0.49416 0.07442 0.05645
-0.49458 0.07526 0.05364
-0.49538 0.07596 0.0509
-0.49643 0.07621 0.04816
-0.49753 0.07624 0.04544
-0.49833 0.07619 0.04261
-0.49907 0.07623 0.03976
-0.49971 0.07625 0.03689
-0.47191 0.06999 0.09591
-0.4734 0.07062 0.09344
-0.47505 0.07064 0.09098
-0.4772 0.07025 0.089
-0.47948 0.0701 0.08711
-0.48146 0.06992 0.08485
-0.48286 0.07009 0.0822
-0.48357 0.07047 0.07932
-0.48472 0.0706 0.07661
-0.48581 0.07061 0.07388
-0.48683 0.07062 0.07111
-0.4879 0.07065 0.06837
-0.48899 0.07095 0.06565
-0.49031 0.07086 0.06301
-0.49209 0.07061 0.06068
-0.49359 0.0709 0.05815
-0.49463 0.07154 0.05545
-0.49518 0.07241 0.05268
-0.49597 0.07309 0.04992
-0.49703 0.07334 0.04718
-0.49832 0.0734 0.04451
-0.49902 0.07333 0.04163
-0.49974 0.07338 0.03877
-0.50047 0.07341 0.03593
-0.47224 0.06722 0.0951
-0.47373 0.06786 0.09262
-0.47523 0.06789 0.09005
-0.47708 0.06759 0.08777
-0.47892 0.06765 0.08546
-0.48068 0.06757 0.08309
-0.48219 0.06763 0.08059
-0.48365 0.06781 0.07802
-0.48468 0.06795 0.07525
-0.48564 0.06799 0.07246
-0.48675 0.06798 0.06972
-0.48776 0.06801 0.06694
-0.4891 0.06823 0.06432
-0.49056 0.06811 0.06174
-0.49224 0.06787 0.05935
-0.49366 0.06815 0.05679
-0.49504 0.06876 0.05425
-0.49592 0.06964 0.05156
-0.49672 0.07032 0.0488
-0.49787 0.07057 0.04609
-0.49901 0.07061 0.04335
-0.49962 0.07055 0.04044
-0.50023 0.07057 0.03755
-0.47251 0.06444 0.09438
-0.4739 0.06506 0.09184
-0.47552 0.06507 0.08935
-0.47705 0.0648 0.08685
-0.4785 0.06494 0.08425
-0.4803 0.06486 0.08188
-0.48212 0.06484 0.07957
-0.48356 0.06504 0.07701
-0.4845 0.06517 0.07422
-0.48554 0.06519 0.07145
-0.48651 0.06519 0.06864
-0.48771 0.06517 0.06592
-0.4892 0.06536 0.06337
-0.49076 0.06521 0.06086
-0.49236 0.06497 0.05841
-0.49392 0.06523 0.05591
-0.49543 0.06583 0.05343
-0.49636 0.06671 0.05074
-0.49714 0.06739 0.04797
-0.49812 0.06763 0.0452
-0.4992 0.06765 0.04244
-0.49998 0.0676 0.03958
-0.5005 0.06762 0.03666
-0.47417 0.06219 0.0915
-0.47275 0.06157 0.09402
-0.47583 0.06218 0.08905
-0.47709 0.06188 0.08636
-0.47888 0.06196 0.08398
-0.48072 0.06189 0.08166
-0.48243 0.06191 0.07927
-0.48366 0.0621 0.07661
-0.48471 0.06222 0.07384
-0.4854 0.06225 0.07097
-0.48627 0.06225 0.06812
-0.48772 0.06219 0.06551
-0.4893 0.06237 0.06302
-0.49081 0.0622 0.06048
-0.49236 0.06195 0.05799
-0.49396 0.06221 0.05552
-0.49541 0.0628 0.05301
-0.49653 0.06366 0.05041
-0.49726 0.06433 0.04762
-0.49801 0.06457 0.04477
-0.49915 0.06459 0.04204
-0.5 0.06453 0.0392
-0.50069 0.06456 0.03632
-0.4743 0.05929 0.0913
-0.4729 0.05869 0.09384
-0.47585 0.05926 0.08878
-0.47764 0.05897 0.08642
-0.47962 0.05911 0.08422
-0.48143 0.05903 0.08188
-0.4829 0.05899 0.07932
-0.48387 0.05915 0.07654
-0.48483 0.05925 0.07376
-0.48539 0.05925 0.07086
-0.48603 0.05923 0.06792
-0.48759 0.05918 0.06534
-0.48927 0.05934 0.06291
-0.49084 0.05916 0.06042
-0.49254 0.0589 0.05802
-0.49401 0.05915 0.05548
-0.49538 0.05974 0.05294
-0.49646 0.06059 0.05033
-0.49732 0.06125 0.04758
-0.49832 0.06149 0.04482
-0.49931 0.06151 0.04203
-0.50003 0.06144 0.03916
-0.50082 0.06147 0.0363
-0.47447 0.05637 0.09124
-0.47311 0.0558 0.09382
-0.47638 0.05638 0.08898
-0.47804 0.05607 0.08655
-0.47988 0.05619 0.08424
-0.48172 0.05611 0.08194
-0.48317 0.05606 0.07938
-0.48427 0.05622 0.07665
-0.48508 0.05629 0.07382
-0.4857 0.05627 0.07094
-0.4864 0.05619 0.06802
-0.48787 0.05615 0.0654
-0.48953 0.05632 0.06295
-0.49119 0.05613 0.06053
-0.4928 0.05586 0.05808
-0.49429 0.0561 0.05556
-0.49559 0.05668 0.05298
-0.4966 0.05752 0.05034
-0.49753 0.05818 0.04761
-0.49857 0.05841 0.04487
-0.49947 0.05843 0.04205
-0.50017 0.05836 0.03918
-0.50127 0.05841 0.03644
-0.47515 0.05354 0.09154
-0.47369 0.05295 0.09403
-0.47677 0.0535 0.08906
-0.47861 0.05322 0.08678
-0.48025 0.05329 0.08433
-0.482 0.05318 0.08196
-0.48347 0.05313 0.07941
-0.48467 0.05328 0.07673
-0.48561 0.05336 0.07393
-0.48657 0.0534 0.07114
-0.48745 0.05335 0.06832
-0.48877 0.05326 0.06566
-0.49022 0.05337 0.06309
-0.4919 0.05318 0.06067
-0.49347 0.05289 0.0582
-0.49487 0.0531 0.05561
-0.4959 0.05363 0.05291
-0.49694 0.05447 0.05028
-0.49794 0.05512 0.04758
-0.49895 0.05535 0.04482
-0.49973 0.05535 0.04197
-0.5006 0.0553 0.03915
-0.50176 0.05536 0.03644
-0.4754 0.05066 0.09173
-0.47392 0.05008 0.0942
-0.4769 0.05056 0.08917
-0.47888 0.0503 0.08697
-0.4807 0.0504 0.08466
-0.48234 0.05028 0.08222
-0.48368 0.0502 0.07959
-0.48524 0.0504 0.07709
-0.48647 0.05056 0.07441
-0.48761 0.05066 0.07169
-0.48865 0.05067 0.06893
-0.48978 0.05049 0.06621
-0.49108 0.05051 0.06356
-0.4926 0.05026 0.06104
-0.49412 0.04993 0.05854
-0.49539 0.05009 0.05588
-0.49633 0.0506 0.05313
-0.49725 0.05141 0.05045
-0.49807 0.05205 0.04769
-0.49911 0.05227 0.04494
-0.50021 0.05232 0.0422
-0.50111 0.05226 0.03939
-0.50214 0.0523 0.03662
-0.47556 0.04783 0.09234
-0.4738 0.04722 0.09462
-0.47747 0.04781 0.09009
-0.47947 0.0476 0.08794
-0.48123 0.04765 0.08557
-0.48249 0.04743 0.0829
-0.48368 0.04732 0.0802
-0.48509 0.0475 0.07762
-0.48703 0.04774 0.07535
-0.48831 0.0479 0.07266
-0.48956 0.04797 0.06998
-0.49054 0.04774 0.0672
-0.49165 0.04769 0.06448
-0.49308 0.04737 0.06192
-0.49466 0.04699 0.05941
-0.49537 0.04709 0.05651
-0.4962 0.04759 0.05373
-0.49712 0.0484 0.05106
-0.49826 0.04905 0.0484
-0.4991 0.04925 0.04559
-0.50045 0.04933 0.04297
-0.50143 0.04929 0.04017
-0.5024 0.04931 0.03739
-0.4755 0.04501 0.09292
-0.47344 0.04439 0.09496
-0.4781 0.04516 0.09138
-0.48004 0.04485 0.08905
-0.48103 0.04479 0.0862
-0.48222 0.04457 0.08352
-0.48343 0.04446 0.08083
-0.48472 0.04463 0.07819
-0.48642 0.04482 0.07578
-0.48809 0.04496 0.07335
-0.48938 0.045 0.07067
-0.49054 0.0448 0.06796
-0.49164 0.04475 0.06524
-0.49274 0.0444 0.06252
-0.4938 0.044 0.0598
-0.49479 0.04412 0.05703
-0.49587 0.04461 0.05434
-0.49696 0.04541 0.05173
-0.49797 0.04604 0.04904
-0.49907 0.04625 0.04632
-0.5002 0.0463 0.0436
-0.50148 0.0463 0.04094
-0.50255 0.04633 0.03819
-0.50348 0.04637 0.03538
-0.47488 0.04219 0.09312
-0.473 0.04154 0.09534
-0.47738 0.04224 0.09146
-0.4792 0.04196 0.08911
-0.48025 0.04196 0.08632
-0.48168 0.04169 0.08375
-0.48293 0.04156 0.08109
-0.4843 0.04172 0.07849
-0.4857 0.04193 0.0759
-0.48747 0.04204 0.07353
-0.48889 0.04205 0.07095
-0.49009 0.04183 0.06826
-0.49126 0.04176 0.06556
-0.4922 0.04142 0.06279
-0.49323 0.04102 0.06007
-0.49464 0.04109 0.05748
-0.49573 0.04158 0.05479
-0.49676 0.04237 0.05215
-0.49791 0.043 0.04951
-0.49922 0.04323 0.04689
-0.50044 0.04328 0.04421
-0.5017 0.04328 0.04154
-0.50267 0.04329 0.03875
-0.50346 0.04332 0.03591
-0.47448 0.03928 0.09325
-0.4765 0.03945 0.0911
-0.47817 0.03921 0.0887
-0.4798 0.03906 0.08624
-0.48155 0.03876 0.08388
-0.48283 0.03862 0.08123
-0.48409 0.03877 0.07857
-0.48545 0.03897 0.07596
-0.48695 0.0391 0.07342
-0.48858 0.03908 0.07096
-0.48981 0.03885 0.06828
-0.491 0.03876 0.06559
-0.49205 0.03839 0.06286
-0.49317 0.03798 0.06018
-0.49441 0.03805 0.05751
-0.49561 0.03852 0.05486
-0.49675 0.0393 0.05226
-0.49824 0.03995 0.04979
-0.49983 0.04024 0.04733
-0.50094 0.04025 0.04459
-0.50206 0.04023 0.04186
-0.503 0.04023 0.03906
-0.50386 0.04027 0.03623
-0.47296 0.03865 0.09572
-0.47492 0.0364 0.0936
-0.47646 0.03652 0.09107
-0.47807 0.03627 0.0886
-0.47981 0.03612 0.08621
-0.48139 0.03583 0.08372
-0.48273 0.03568 0.08109
-0.48434 0.03582 0.07861
-0.48561 0.03601 0.07594
-0.48698 0.03612 0.07333
-0.48848 0.0361 0.07077
-0.48981 0.03585 0.06813
-0.49102 0.03575 0.06543
-0.49225 0.03537 0.06277
-0.49322 0.03494 0.06002
-0.49429 0.035 0.05727
-0.49556 0.03545 0.05463
-0.49702 0.03623 0.05215
-0.49887 0.03693 0.04995
-0.50066 0.0373 0.04762
-0.50173 0.03728 0.04486
-0.50277 0.03723 0.04208
-0.50341 0.03717 0.03919
-0.50402 0.03718 0.03629
-0.47372 0.03297 0.09559
-0.47518 0.03358 0.09309
-0.47678 0.03367 0.09058
-0.47846 0.03341 0.08816
-0.48031 0.03324 0.08581
-0.48149 0.03297 0.08308
-0.48306 0.03279 0.08057
-0.48483 0.03291 0.07817
-0.48595 0.03311 0.07541
-0.4874 0.03321 0.07283
-0.48881 0.03319 0.07021
-0.49004 0.03293 0.06752
-0.49135 0.03281 0.06486
-0.49257 0.03241 0.06219
-0.49361 0.03197 0.05947
-0.49476 0.032 0.05672
-0.49615 0.03244 0.05411
-0.49797 0.03329 0.05186
-0.50032 0.03421 0.05019
-0.50233 0.0347 0.04791
-0.50305 0.03447 0.04493
-0.50333 0.03419 0.04197
-0.5037 0.03409 0.03903
-0.50423 0.0341 0.03612
-0.47354 0.03017 0.09486
-0.47513 0.03076 0.09242
-0.47682 0.03083 0.08997
-0.47872 0.03053 0.0877
-0.48011 0.0304 0.08506
-0.48167 0.03009 0.08256
-0.48308 0.02991 0.07995
-0.48443 0.03006 0.07731
-0.48608 0.0302 0.07484
-0.48772 0.03029 0.07236
-0.48918 0.03025 0.06977
-0.49058 0.02999 0.06716
-0.49178 0.02986 0.06445
-0.49295 0.02944 0.06175
-0.49932 0.03051 0.05204
-0.50171 0.03141 0.0504
-0.50402 0.03191 0.04813
-0.50402 0.03149 0.04487
-0.50364 0.03112 0.0419
-0.50383 0.03101 0.03894
-0.47517 0.02789 0.09191
-0.47671 0.02798 0.08938
POLYGONS 1065 4260
3 0 1 2
3 2 3 4
3 3 5 4
3 3 6 5
3 6 7 5
3 8 9 10
3 8 11 9
3 11 0 9
3 9 0 12
3 0 2 12
3 12 2 13
3 2 4 13
3 13 4 14
3 4 15 14
3 4 5 15
3 5 16 15
3 5 7 16
3 7 17 16
3 7 18 17
3 18 19 17
3 18 20 19
3 20 21 19
3 20 22 21
3 22 23 21
3 22 24 23
3 24 25 23
3 24 26 25
3 26 27 25
3 26 28 27
3 28 29 27
3 28 30 29
3 30 31 29
3 30 32 31
3 32 33 31
3 32 34 33
3 34 35 33
3 34 36 35
3 36 37 35
3 10 38 39
3 10 9 38
3 9 12 38
3 38 12 40
3 12 13 40
3 40 13 41
3 13 14 41
3 41 14 42
3 14 43 42
3 14 15 43
3 15 44 43
3 15 16 44
3 16 45 44
3 16 17 45
3 17 46 45
3 17 19 46
3 19 47 46
3 19 21 47
3 21 48 47
3 21 23 48
3 23 49 48
3 23 25 49
3 25 50 49
3 25 27 50
3 27 51 50
3 27 29 51
3 29 52 51
3 29 31 52
3 31 53 52
3 31 33 53
3 33 54 53
3 33 35 54
3 35 55 54
3 35 37 55
3 37 56 55
3 37 57 56
3 57 58 56
3 57 59 58
3 59 60 58
3 59 61 60
3 61 62 60
3 61 63 62
3 63 64 62
3 63 65 64
3 65 66 64
3 39 67 68
3 39 38 67
3 38 40 67
3 67 40 69
3 40 41 69
3 69 41 70
3 41 42 70
3 70 42 71
3 42 72 71
3 42 43 72
3 43 73 72
3 43 44 73
3 44 74 73
3 44 45 74
3 45 75 74
3 45 46 75
3 46 76 75
3 46 47 76
3 47 77 76
3 47 48 77
3 48 78 77
3 48 49 78
3 49 50 78
3 78 50 79
3 50 80 79
3 50 51 80
3 51 81 80
3 51 52 81
3 52 82 81
3 52 53 82
3 53 83 82
3 53 54 83
3 54 84 83
3 54 55 84
3 55 85 84
3 55 56 85
3 56 86 85
3 56 58 86
3 58 87 86
3 58 60 87
3 60 88 87
3 60 62 88
3 62 89 88
3 62 64 89
3 64 90 89
3 64 66 90
3 68 67 91
3 91 67 92
3 67 69 92
3 92 69 93
3 69 70 93
3 93 70 94
3 70 71 94
3 94 71 95
3 71 96 95
3 71 72 96
3 72 97 96
3 72 73 97
3 73 98 97
3 73 74 98
3 74 99 98
3 74 75 99
3 75 100 99
3 75 76 100
3 76 101 100
3 76 77 101
3 77 102 101
3 77 78 102
3 78 79 102
3 102 79 103
3 79 80 103
3 103 80 104
3 80 105 104
3 80 81 105
3 81 106 105
3 81 82 106
3 82 107 106
3 82 83 107
3 83 108 107
3 83 84 108
3 84 109 108
3 84 85 109
3 85 86 109
3 109 86 110
3 86 87 110
3 110 87 111
3 87 88 111
3 111 88 112
3 88 89 112
3 112 89 113
3 89 90 113
3 113 90 114
3 91 92 115
3 115 92 116
3 92 93 116
3 116 93 117
3 93 94 117
3 117 94 118
3 94 95 118
3 118 95 119
3 95 96 119
3 119 96 120
3 96 121 120
3 96 97 121
3 97 122 121
3 97 98 122
3 98 99 122
3 122 99 123
3 99 100 123
3 123 100 124
3 100 101 124
3 124 101 125
3 101 126 125
3 101 102 126
3 102 103 126
3 126 103 127
3 103 104 127
3 127 104 128
3 104 105 128
3 128 105 129
3 105 130 129
3 105 106 130
3 106 131 130
3 106 107 131
3 107 132 131
3 107 108 132
3 108 133 132
3 108 109 133
3 109 110 133
3 133 110 134
3 110 111 134
3 134 111 135
3 111 112 135
3 135 112 136
3 112 113 136
3 136 113 137
3 113 114 137
3 115 138 139
3 115 116 138
3 116 117 138
3 138 117 140
3 117 118 140
3 140 118 141
3 118 119 141
3 141 119 142
3 119 143 142
3 119 120 143
3 120 144 143
3 120 121 144
3 121 145 144
3 121 122 145
3 122 146 145
3 122 123 146
3 123 147 146
3 123 124 147
3 124 148 147
3 124 125 148
3 125 149 148
3 125 126 149
3 126 127 149
3 149 127 150
3 127 128 150
3 150 128 151
3 128 152 151
3 128 129 152
3 129 153 152
3 129 130 153
3 130 154 153
3 130 131 154
3 131 155 154
3 131 132 155
3 132 156 155
3 132 133 156
3 133 134 156
3 156 134 157
3 134 135 157
3 157 135 158
3 135 159 158
3 135 136 159
3 136 137 159
3 159 137 160
3 137 161 160
3 160 161 162
3 139 163 164
3 139 138 163
3 138 140 163
3 163 140 165
3 140 141 165
3 165 141 166
3 141 142 166
3 166 142 167
3 142 168 167
3 142 143 168
3 143 169 168
3 143 144 169
3 144 170 169
3 144 145 170
3 145 171 170
3 145 146 171
3 146 172 171
3 146 147 172
3 147 173 172
3 147 148 173
3 148 174 173
3 148 149 174
3 149 175 174
3 149 150 175
3 150 176 175
3 150 151 176
3 151 177 176
3 151 152 177
3 152 178 177
3 152 153 178
3 153 179 178
3 153 154 179
3 154 180 179
3 154 155 180
3 155 181 180
3 155 156 181
3 156 182 181
3 156 157 182
3 157 183 182
3 157 158 183
3 158 184 183
3 158 159 184
3 159 185 184
3 159 160 185
3 160 186 185
3 164 163 187
3 187 163 188
3 163 165 188
3 188 165 189
3 165 166 189
3 189 166 190
3 166 167 190
3 190 167 191
3 167 192 191
3 167 168 192
3 168 193 192
3 168 169 193
3 169 170 193
3 193 170 194
3 170 171 194
3 194 171 195
3 171 172 195
3 195 172 196
3 172 173 196
3 196 173 197
3 173 174 197
3 197 174 198
3 174 175 198
3 198 175 199
3 175 176 199
3 199 176 200
3 176 177 200
3 200 177 201
3 177 202 201
3 177 178 202
3 178 203 202
3 178 179 203
3 179 204 203
3 179 180 204
3 180 181 204
3 204 181 205
3 181 182 205
3 205 182 206
3 182 183 206
3 206 183 207
3 183 184 207
3 207 184 208
3 184 185 208
3 208 185 209
3 185 186 209
3 187 188 210
3 210 188 211
3 188 189 211
3 211 189 212
3 189 190 212
3 212 190 213
3 190 191 213
3 213 191 214
3 191 192 214
3 214 192 215
3 192 193 215
3 215 193 216
3 193 194 216
3 216 194 217
3 194 195 217
3 217 195 218
3 195 196 218
3 218 196 219
3 196 197 219
3 219 197 220
3 197 198 220
3 220 198 221
3 198 199 221
3 221 199 222
3 199 200 222
3 222 200 223
3 200 201 223
3 223 201 224
3 201 202 224
3 224 202 225
3 202 226 225
3 202 203 226
3 203 204 226
3 226 204 227
3 204 205 227
3 227 205 228
3 205 206 228
3 228 206 229
3 206 207 229
3 229 207 230
3 207 208 230
3 230 208 231
3 208 209 231
3 231 209 232
3 233 210 234
3 210 211 234
3 234 211 235
3 211 212 235
3 235 212 236
3 212 213 236
3 236 213 237
3 213 214 237
3 237 214 238
3 214 215 238
3 238 215 239
3 215 216 239
3 239 216 240
3 216 217 240
3 240 217 241
3 217 218 241
3 241 218 242
3 218 219 242
3 242 219 243
3 219 220 243
3 243 220 244
3 220 221 244
3 244 221 245
3 221 222 245
3 245 222 246
3 222 223 246
3 246 223 247
3 223 224 247
3 247 224 248
3 224 225 248
3 248 225 249
3 225 226 249
3 249 226 250
3 226 227 250
3 250 227 251
3 227 228 251
3 251 228 252
3 228 229 252
3 252 229 253
3 229 230 253
3 253 230 254
3 230 231 254
3 254 231 255
3 231 232 255
3 255 232 256
3 233 234 257
3 257 234 258
3 234 235 258
3 258 235 259
3 235 236 259
3 259 236 260
3 236 237 260
3 260 237 261
3 237 238 261
3 261 238 262
3 238 239 262
3 262 239 263
3 239 240 263
3 263 240 264
3 240 241 264
3 264 241 265
3 241 242 265
3 265 242 266
3 242 243 266
3 266 243 267
3 243 244 267
3 267 244 268
3 244 245 268
3 268 245 269
3 245 246 269
3 269 246 270
3 246 247 270
3 270 247 271
3 247 248 271
3 271 248 272
3 248 249 272
3 272 249 273
3 249 250 273
3 273 250 274
3 250 251 274
3 274 251 275
3 251 252 275
3 275 252 276
3 252 253 276
3 276 253 277
3 253 254 277
3 277 254 278
3 254 255 278
3 278 255 279
3 255 256 279
3 257 258 280
3 280 258 281
3 258 259 281
3 281 259 282
3 259 260 282
3 282 260 283
3 260 261 283
3 283 261 284
3 261 262 284
3 284 262 285
3 262 263 285
3 285 263 286
3 263 264 286
3 286 264 287
3 264 265 287
3 287 265 288
3 265 266 288
3 288 266 289
3 266 267 289
3 289 267 290
3 267 268 290
3 290 268 291
3 268 269 291
3 291 269 292
3 269 270 292
3 292 270 293
3 270 271 293
3 293 271 294
3 271 272 294
3 294 272 295
3 272 273 295
3 295 273 296
3 273 274 296
3 296 274 297
3 274 275 297
3 297 275 298
3 275 276 298
3 298 276 299
3 276 277 299
3 299 277 300
3 277 278 300
3 300 278 301
3 278 279 301
3 301 279 302
3 280 303 304
3 280 281 303
3 281 282 303
3 303 282 305
3 282 283 305
3 305 283 306
3 283 284 306
3 306 284 307
3 284 285 307
3 307 285 308
3 285 286 308
3 308 286 309
3 286 287 309
3 309 287 310
3 287 288 310
3 310 288 311
3 288 289 311
3 311 289 312
3 289 290 312
3 312 290 313
3 290 291 313
3 313 291 314
3 291 292 314
3 314 292 315
3 292 293 315
3 315 293 316
3 293 294 316
3 316 294 317
3 294 295 317
3 317 295 318
3 295 319 318
3 295 296 319
3 296 320 319
3 296 297 320
3 297 321 320
3 297 298 321
3 298 299 321
3 321 299 322
3 299 300 322
3 322 300 323
3 300 301 323
3 323 301 324
3 301 302 324
3 324 302 325
3 304 326 327
3 304 303 326
3 303 305 326
3 326 305 328
3 305 306 328
3 328 306 329
3 306 307 329
3 329 307 330
3 307 308 330
3 330 308 331
3 308 309 331
3 331 309 332
3 309 333 332
3 309 310 333
3 310 311 333
3 333 311 334
3 311 312 334
3 334 312 335
3 312 313 335
3 335 313 336
3 313 314 336
3 336 314 337
3 314 315 337
3 337 315 338
3 315 316 338
3 338 316 339
3 316 317 339
3 339 317 340
3 317 341 340
3 317 318 341
3 318 342 341
3 318 319 342
3 319 343 342
3 319 320 343
3 320 344 343
3 320 321 344
3 321 345 344
3 321 322 345
3 322 323 345
3 345 323 346
3 323 324 346
3 346 324 347
3 324 325 347
3 347 325 348
3 327 349 350
3 327 326 349
3 326 328 349
3 349 328 351
3 328 329 351
3 351 329 352
3 329 330 352
3 352 330 353
3 330 331 353
3 353 331 354
3 331 332 354
3 354 332 355
3 332 356 355
3 332 333 356
3 333 357 356
3 333 334 357
3 334 335 357
3 357 335 358
3 335 336 358
3 358 336 359
3 336 337 359
3 359 337 360
3 337 361 360
3 337 338 361
3 338 339 361
3 361 339 362
3 339 340 362
3 362 340 363
3 340 364 363
3 340 341 364
3 341 365 364
3 341 342 365
3 342 366 365
3 342 343 366
3 343 367 366
3 343 344 367
3 344 368 367
3 344 345 368
3 345 346 368
3 368 346 369
3 346 347 369
3 369 347 370
3 347 371 370
3 347 348 371
3 350 372 373
3 350 349 372
3 349 351 372
3 372 351 374
3 351 352 374
3 374 352 375
3 352 376 375
3 352 353 376
3 353 354 376
3 376 354 377
3 354 355 377
3 377 355 378
3 355 379 378
3 355 356 379
3 356 380 379
3 356 357 380
3 357 381 380
3 357 358 381
3 358 382 381
3 358 359 382
3 359 360 382
3 382 360 383
3 360 384 383
3 360 361 384
3 361 362 384
3 384 362 385
3 362 363 385
3 385 363 386
3 363 387 386
3 363 364 387
3 364 388 387
3 364 365 388
3 365 389 388
3 365 366 389
3 366 390 389
3 366 367 390
3 367 391 390
3 367 368 391
3 368 369 391
3 391 369 392
3 369 370 392
3 392 370 393
3 370 371 393
3 393 371 394
3 373 395 396
3 373 372 395
3 372 374 395
3 395 374 397
3 374 375 397
3 397 375 398
3 375 399 398
3 375 376 399
3 376 377 399
3 399 377 400
3 377 378 400
3 400 378 401
3 378 402 401
3 378 379 402
3 379 403 402
3 379 380 403
3 380 404 403
3 380 381 404
3 381 405 404
3 381 382 405
3 382 406 405
3 382 383 406
3 383 407 406
3 383 384 407
3 384 385 407
3 407 385 408
3 385 386 408
3 408 386 409
3 386 410 409
3 386 387 410
3 387 411 410
3 387 388 411
3 388 412 411
3 388 389 412
3 389 413 412
3 389 390 413
3 390 414 413
3 390 391 414
3 391 415 414
3 391 392 415
3 392 416 415
3 392 393 416
3 393 417 416
3 393 394 417
3 396 418 419
3 396 395 418
3 395 420 418
3 395 397 420
3 397 421 420
3 397 398 421
3 398 422 421
3 398 399 422
3 399 423 422
3 399 400 423
3 400 424 423
3 400 401 424
3 401 425 424
3 401 402 425
3 402 426 425
3 402 403 426
3 403 427 426
3 403 404 427
3 404 428 427
3 404 405 428
3 405 429 428
3 405 406 429
3 406 430 429
3 406 407 430
3 407 431 430
3 407 408 431
3 408 432 431
3 408 409 432
3 409 433 432
3 409 410 433
3 410 434 433
3 410 411 434
3 411 435 434
3 411 412 435
3 412 436 435
3 412 413 436
3 413 437 436
3 413 414 437
3 414 438 437
3 414 415 438
3 415 439 438
3 415 416 439
3 416 440 439
3 416 417 440
3 419 441 442
3 419 418 441
3 418 443 441
3 418 420 443
3 420 444 443
3 420 421 444
3 421 445 444
3 421 422 445
3 422 446 445
3 422 423 446
3 423 447 446
3 423 424 447
3 424 448 447
3 424 425 448
3 425 449 448
3 425 426 449
3 426 450 449
3 426 427 450
3 427 451 450
3 427 428 451
3 428 452 451
3 428 429 452
3 429 453 452
3 429 430 453
3 430 454 453
3 430 431 454
3 431 455 454
3 431 432 455
3 432 456 455
3 432 433 456
3 433 457 456
3 433 434 457
3 434 458 457
3 434 435 458
3 435 459 458
3 435 436 459
3 436 460 459
3 436 437 460
3 437 461 460
3 437 438 461
3 438 462 461
3 438 439 462
3 439 463 462
3 439 440 463
3 440 464 463
3 442 465 466
3 442 441 465
3 441 467 465
3 441 443 467
3 443 444 467
3 467 444 468
3 444 469 468
3 444 445 469
3 445 446 469
3 469 446 470
3 446 471 470
3 446 447 471
3 447 472 471
3 447 448 472
3 448 473 472
3 448 449 473
3 449 474 473
3 449 450 474
3 450 475 474
3 450 451 475
3 451 476 475
3 451 452 476
3 452 477 476
3 452 453 477
3 453 454 477
3 477 454 478
3 454 455 478
3 478 455 479
3 455 480 479
3 455 456 480
3 456 481 480
3 456 457 481
3 457 482 481
3 457 458 482
3 458 483 482
3 458 459 483
3 459 484 483
3 459 460 484
3 460 485 484
3 460 461 485
3 461 486 485
3 461 462 486
3 462 487 486
3 462 463 487
3 463 488 487
3 466 465 489
3 465 467 489
3 489 467 490
3 467 468 490
3 490 468 491
3 468 469 491
3 491 469 492
3 469 470 492
3 492 470 493
3 470 471 493
3 493 471 494
3 471 495 494
3 471 472 495
3 472 496 495
3 472 473 496
3 473 497 496
3 473 474 497
3 474 475 497
3 497 475 498
3 475 476 498
3 498 476 499
3 476 477 499
3 499 477 500
3 477 478 500
3 500 478 501
3 478 479 501
3 501 479 502
3 479 503 502
3 479 480 503
3 480 504 503
3 480 481 504
3 481 505 504
3 481 482 505
3 482 506 505
3 482 483 506
3 483 507 506
3 483 484 507
3 484 508 507
3 484 485 508
3 485 509 508
3 485 486 509
3 486 510 509
3 486 487 510
3 487 511 510
3 487 488 511
3 512 489 513
3 489 514 513
3 489 490 514
3 490 491 514
3 514 491 515
3 491 492 515
3 515 492 516
3 492 493 516
3 516 493 517
3 493 494 517
3 517 494 518
3 494 519 518
3 494 495 519
3 495 520 519
3 495 496 520
3 496 497 520
3 520 497 521
3 497 498 521
3 521 498 522
3 498 499 522
3 522 499 523
3 499 500 523
3 523 500 524
3 500 501 524
3 524 501 525
3 501 502 525
3 525 502 526
3 502 503 526
3 526 503 527
3 503 528 527
3 503 504 528
3 504 529 528
3 504 505 529
3 505 530 529
3 505 506 530
3 506 531 530
3 506 507 531
3 507 532 531
3 507 508 532
3 508 533 532
3 508 509 533
3 509 534 533
3 509 510 534
3 510 535 534
3 510 511 535
3 536 513 537
3 513 514 537
3 537 514 538
3 514 515 538
3 538 515 539
3 515 516 539
3 539 516 540
3 516 517 540
3 540 517 541
3 517 518 541
3 541 518 542
3 518 519 542
3 542 519 543
3 519 520 543
3 543 520 544
3 520 521 544
3 544 521 545
3 521 522 545
3 545 522 546
3 522 523 546
3 546 523 547
3 523 524 547
3 547 524 548
3 524 525 548
3 548 525 549
3 525 526 549
3 549 526 550
3 526 527 550
3 550 527 551
3 527 528 551
3 551 528 552
3 528 553 552
3 528 529 553
3 529 554 553
3 529 530 554
3 530 555 554
3 530 531 555
3 531 532 555
3 555 532 556
3 532 533 556
3 556 533 557
3 533 534 557
3 557 534 558
3 534 535 558
3 558 535 559
3 536 537 560
3 560 537 561
3 537 538 561
3 561 538 562
3 538 539 562
3 562 539 563
3 539 540 563
3 563 540 564
3 540 541 564
3 564 541 565
3 541 542 565
3 565 542 566
3 542 543 566
3 566 543 567
3 543 544 567
3 567 544 568
3 544 545 568
3 568 545 569
3 545 546 569
3 569 546 570
3 546 547 570
3 570 547 571
3 547 548 571
3 571 548 572
3 548 549 572
3 549 550 573
3 552 553 574
3 553 575 574
3 553 554 575
3 554 576 575
3 554 555 576
3 555 556 576
3 576 556 577
3 556 557 577
3 577 557 578
3 557 558 578
3 578 558 579
3 558 559 579
3 560 561 580
3 561 562 580
3 580 562 581
3 562 563 581
CELL_DATA 1065
SCALARS brightness_temperature float
LOOKUP_TABLE default
POINT_DATA 582
CELL_DATA 1065
SCALARS emission_angle float
LOOKUP_TABLE default
POINT_DATA 582
CELL_DATA 1065
SCALARS incidence_angle float
LOOKUP_TABLE default
POINT_DATA 582
CELL_DATA 1065
SCALARS phase_angle float
LOOKUP_TABLE default
POINT_DATA 582
CELL_DATA 1065
SCALARS local_solar_time float
LOOKUP_TABLE default
POINT_DATA 582
CELL_DATA 1065
SCALARS local_solar_time_normal_vector float
LOOKUP_TABLE default
CELL_DATA 1065
SCALARS pixel_x float
LOOKUP_TABLE default
POINT_DATA 582
CELL_DATA 1065
SCALARS pixel_y float
LOOKUP_TABLE default
POINT_DATA 582
CELL_DATA 1065
SCALARS longitude float
LOOKUP_TABLE default
POINT_DATA 582
CELL_DATA 1065
SCALARS latitude float
LOOKUP_TABLE default
