# vtk DataFile Version 3.0
SHAPE_sfm_50k_v20200323
ASCII
DATASET POLYDATA
POINTS 245 float
-0.43895 -0.15113 -0.07815
-0.43721 -0.14864 -0.08014
-0.43688 -0.15139 -0.0801
-0.4355 -0.1488 -0.08246
-0.43512 -0.15152 -0.08239
-0.43379 -0.14851 -0.08478
-0.4333 -0.1512 -0.0846
-0.44445 -0.15181 -0.07653
-0.44072 -0.15365 -0.076
-0.44347 -0.15413 -0.07506
-0.44162 -0.15124 -0.07723
-0.43844 -0.15383 -0.07765
-0.43657 -0.15414 -0.07981
-0.43475 -0.15426 -0.08206
-0.4329 -0.1539 -0.08425
-0.43131 -0.1529 -0.08644
-0.44839 -0.15455 -0.06771
-0.44596 -0.15701 -0.06955
-0.44741 -0.15714 -0.06701
-0.44718 -0.15459 -0.07037
-0.44417 -0.15667 -0.07187
-0.44557 -0.15447 -0.07289
-0.44196 -0.15605 -0.07365
-0.43967 -0.15613 -0.07535
-0.43764 -0.15646 -0.07734
-0.43575 -0.15678 -0.0795
-0.43399 -0.15691 -0.0818
-0.43228 -0.15659 -0.08413
-0.43053 -0.15551 -0.08616
-0.45274 -0.158 -0.05682
-0.45065 -0.1602 -0.05916
-0.45189 -0.16078 -0.05663
-0.45164 -0.15747 -0.05944
-0.44923 -0.15991 -0.06166
-0.45021 -0.1572 -0.06196
-0.44878 -0.15712 -0.06446
-0.44771 -0.15976 -0.0641
-0.44624 -0.15971 -0.0666
-0.4446 -0.15943 -0.06898
-0.44273 -0.15895 -0.07113
-0.44091 -0.1586 -0.07332
-0.4388 -0.15878 -0.07525
-0.43679 -0.1591 -0.07726
-0.43482 -0.15938 -0.07936
-0.43296 -0.15946 -0.08156
-0.43125 -0.15915 -0.08388
-0.42975 -0.15814 -0.08612
-0.45445 -0.16231 -0.05173
-0.4531 -0.16128 -0.05407
-0.45251 -0.16412 -0.05423
-0.45096 -0.16353 -0.05658
-0.44958 -0.16289 -0.05902
-0.44826 -0.16262 -0.06157
-0.44669 -0.16244 -0.06397
-0.44514 -0.16234 -0.06642
-0.44336 -0.16196 -0.06867
-0.4417 -0.16157 -0.07098
-0.43993 -0.16122 -0.07322
-0.43787 -0.16141 -0.07519
-0.4359 -0.16173 -0.07725
-0.4339 -0.16198 -0.07933
-0.43184 -0.16197 -0.08135
-0.43006 -0.16162 -0.08358
-0.42879 -0.16073 -0.08602
-0.45167 -0.16691 -0.05445
-0.45007 -0.16629 -0.05675
-0.44859 -0.16561 -0.0591
-0.44718 -0.16529 -0.06157
-0.44568 -0.16513 -0.06403
-0.44394 -0.16494 -0.06635
-0.44215 -0.16454 -0.06856
-0.4405 -0.16416 -0.07088
-0.43889 -0.16386 -0.07321
-0.43701 -0.16408 -0.07536
-0.43507 -0.16439 -0.07747
-0.4328 -0.16452 -0.07929
-0.43073 -0.16448 -0.0813
-0.4289 -0.1641 -0.08347
-0.4275 -0.16314 -0.08579
-0.45056 -0.1696 -0.05474
-0.44887 -0.16893 -0.05696
-0.44739 -0.16824 -0.05931
-0.44596 -0.16791 -0.06175
-0.44445 -0.16773 -0.0642
-0.44261 -0.16747 -0.06644
-0.44065 -0.16697 -0.06848
-0.43892 -0.16653 -0.07072
-0.43746 -0.16631 -0.07312
-0.43591 -0.16667 -0.07551
-0.43389 -0.16692 -0.07757
-0.4317 -0.16705 -0.07946
-0.42977 -0.16705 -0.0816
-0.4279 -0.16664 -0.08373
-0.42632 -0.16559 -0.08587
-0.42498 -0.16435 -0.08807
-0.44939 -0.17226 -0.05487
-0.44787 -0.17163 -0.05722
-0.44627 -0.17089 -0.05948
-0.44471 -0.17051 -0.06184
-0.44317 -0.1703 -0.06426
-0.44121 -0.16997 -0.06637
-0.43915 -0.16939 -0.06828
-0.43736 -0.16889 -0.07046
-0.43597 -0.1687 -0.07292
-0.43474 -0.16923 -0.07547
-0.43292 -0.16953 -0.07773
-0.43065 -0.1696 -0.07955
-0.42862 -0.16956 -0.08157
-0.42679 -0.16916 -0.08373
-0.42531 -0.16814 -0.08594
-0.42399 -0.16689 -0.08813
-0.44702 -0.17439 -0.05731
-0.44843 -0.17499 -0.05489
-0.44536 -0.17363 -0.05952
-0.44375 -0.17322 -0.06184
-0.4421 -0.17295 -0.06419
-0.44005 -0.17256 -0.06618
-0.43803 -0.17199 -0.06812
-0.43624 -0.17148 -0.07028
-0.43493 -0.17131 -0.07279
-0.43362 -0.17178 -0.0753
-0.43183 -0.1721 -0.07756
-0.42967 -0.17219 -0.07949
-0.42763 -0.17211 -0.08149
-0.42577 -0.17169 -0.08359
-0.42427 -0.17067 -0.08577
-0.42304 -0.16945 -0.08801
-0.44655 -0.17727 -0.05716
-0.44778 -0.17782 -0.05462
-0.44482 -0.17647 -0.05934
-0.44302 -0.17598 -0.0615
-0.44138 -0.17569 -0.06384
-0.43945 -0.17532 -0.06593
-0.43752 -0.17478 -0.06796
-0.43572 -0.17426 -0.07009
-0.4341 -0.17397 -0.07241
-0.43272 -0.17437 -0.07489
-0.43089 -0.17466 -0.07709
-0.4288 -0.17477 -0.07905
-0.42688 -0.17473 -0.08116
-0.42517 -0.17436 -0.08339
-0.42361 -0.17331 -0.08551
-0.42217 -0.172 -0.08754
-0.4457 -0.18004 -0.05665
-0.44693 -0.18057 -0.05412
-0.44414 -0.17928 -0.05894
-0.44241 -0.17878 -0.06115
-0.4409 -0.17851 -0.06357
-0.43917 -0.17817 -0.06584
-0.43719 -0.1776 -0.06784
-0.43536 -0.17706 -0.06994
-0.43368 -0.17674 -0.07221
-0.43216 -0.17708 -0.0746
-0.4303 -0.17733 -0.07676
-0.42829 -0.17746 -0.0788
-0.4263 -0.17739 -0.08084
-0.42456 -0.17701 -0.08305
-0.42287 -0.1759 -0.08504
-0.42151 -0.17462 -0.08715
-0.44453 -0.18266 -0.05618
-0.44306 -0.18194 -0.05851
-0.44159 -0.18154 -0.06092
-0.44009 -0.18127 -0.06333
-0.4385 -0.18097 -0.06569
-0.43684 -0.18045 -0.06797
-0.43494 -0.17987 -0.07002
-0.43329 -0.17953 -0.07229
-0.43158 -0.17981 -0.07454
-0.42972 -0.18004 -0.07669
-0.42787 -0.18019 -0.07887
-0.42595 -0.18014 -0.08102
-0.42377 -0.17963 -0.08278
-0.42204 -0.17849 -0.08472
-0.42066 -0.17719 -0.0868
-0.41938 -0.17585 -0.08897
-0.44224 -0.18471 -0.05846
-0.44364 -0.1854 -0.05608
-0.44064 -0.18426 -0.06078
-0.43904 -0.18394 -0.0631
-0.43755 -0.18367 -0.06552
-0.43597 -0.18318 -0.06784
-0.4343 -0.18264 -0.07009
-0.43262 -0.18228 -0.07234
-0.4309 -0.18253 -0.07458
-0.42907 -0.18276 -0.07675
-0.42729 -0.18296 -0.07901
-0.4251 -0.18282 -0.0809
-0.42291 -0.18224 -0.08263
-0.42152 -0.1812 -0.08487
-0.41993 -0.17982 -0.08678
-0.41858 -0.17845 -0.08887
-0.44275 -0.18817 -0.05625
-0.44138 -0.18748 -0.05865
-0.43971 -0.18699 -0.0609
-0.43826 -0.1867 -0.06332
-0.43664 -0.18638 -0.06565
-0.43508 -0.18588 -0.06797
-0.43349 -0.18536 -0.07027
-0.43184 -0.18498 -0.07254
-0.43019 -0.18525 -0.07485
-0.42817 -0.18541 -0.07688
-0.42589 -0.18537 -0.07864
-0.42367 -0.18516 -0.08041
-0.42184 -0.18476 -0.08253
-0.42035 -0.18369 -0.08469
-0.41896 -0.18238 -0.08678
-0.41756 -0.18099 -0.08883
-0.4401 -0.19009 -0.05865
-0.44148 -0.19079 -0.05627
-0.43877 -0.18972 -0.06114
-0.43713 -0.18936 -0.06343
-0.43549 -0.18902 -0.06573
-0.43409 -0.18856 -0.06815
-0.43253 -0.18803 -0.07048
-0.43094 -0.18766 -0.07278
-0.42911 -0.18786 -0.07495
-0.42699 -0.18795 -0.07688
-0.42458 -0.18779 -0.07844
-0.42252 -0.18764 -0.08039
-0.4207 -0.18725 -0.08253
-0.41927 -0.1862 -0.08474
-0.41797 -0.18492 -0.08689
-0.41667 -0.18355 -0.08902
-0.44037 -0.19346 -0.05644
-0.43906 -0.19278 -0.05886
-0.43761 -0.19236 -0.06125
-0.43581 -0.19192 -0.06342
-0.43417 -0.19157 -0.06571
-0.43291 -0.19116 -0.06821
-0.43145 -0.19066 -0.07061
-0.42985 -0.19026 -0.0729
-0.42795 -0.19042 -0.07501
-0.42567 -0.1904 -0.07673
-0.42354 -0.19034 -0.07861
-0.42164 -0.19022 -0.0807
-0.41702 -0.18746 -0.08712
-0.41576 -0.1861 -0.08928
-0.43943 -0.19616 -0.05692
-0.43787 -0.1954 -0.05916
-0.43635 -0.19494 -0.06149
-0.43462 -0.19452 -0.06369
-0.43301 -0.19416 -0.06599
-0.43173 -0.19374 -0.06848
-0.43026 -0.19322 -0.07086
-0.42858 -0.19278 -0.07308
POLYGONS 427 1708
3 0 1 2
3 1 3 2
3 2 3 4
3 3 5 4
3 4 5 6
3 7 8 9
3 7 10 8
3 10 0 8
3 8 0 11
3 0 2 11
3 11 2 12
3 2 4 12
3 12 4 13
3 4 14 13
3 4 6 14
3 6 15 14
3 16 17 18
3 16 19 17
3 19 20 17
3 19 21 20
3 21 22 20
3 21 9 22
3 9 8 22
3 22 8 23
3 8 11 23
3 23 11 24
3 11 12 24
3 24 12 25
3 12 13 25
3 25 13 26
3 13 14 26
3 26 14 27
3 14 28 27
3 14 15 28
3 29 30 31
3 29 32 30
3 32 33 30
3 32 34 33
3 34 35 33
3 33 35 36
3 35 18 36
3 36 18 37
3 18 38 37
3 18 17 38
3 17 39 38
3 17 20 39
3 20 40 39
3 20 22 40
3 22 23 40
3 40 23 41
3 23 24 41
3 41 24 42
3 24 25 42
3 42 25 43
3 25 26 43
3 43 26 44
3 26 27 44
3 44 27 45
3 27 46 45
3 27 28 46
3 47 48 49
3 48 50 49
3 48 31 50
3 31 51 50
3 31 30 51
3 30 33 51
3 51 33 52
3 33 36 52
3 52 36 53
3 36 37 53
3 53 37 54
3 37 38 54
3 54 38 55
3 38 39 55
3 55 39 56
3 39 40 56
3 56 40 57
3 40 41 57
3 57 41 58
3 41 42 58
3 58 42 59
3 42 43 59
3 59 43 60
3 43 44 60
3 60 44 61
3 44 45 61
3 61 45 62
3 45 63 62
3 45 46 63
3 49 50 64
3 64 50 65
3 50 66 65
3 50 51 66
3 51 52 66
3 66 52 67
3 52 53 67
3 67 53 68
3 53 54 68
3 68 54 69
3 54 55 69
3 69 55 70
3 55 56 70
3 70 56 71
3 56 57 71
3 71 57 72
3 57 58 72
3 72 58 73
3 58 59 73
3 73 59 74
3 59 60 74
3 74 60 75
3 60 61 75
3 75 61 76
3 61 62 76
3 76 62 77
3 62 78 77
3 62 63 78
3 64 65 79
3 79 65 80
3 65 66 80
3 80 66 81
3 66 67 81
3 81 67 82
3 67 68 82
3 82 68 83
3 68 69 83
3 83 69 84
3 69 70 84
3 84 70 85
3 70 71 85
3 85 71 86
3 71 72 86
3 86 72 87
3 72 73 87
3 87 73 88
3 73 74 88
3 88 74 89
3 74 75 89
3 89 75 90
3 75 76 90
3 90 76 91
3 76 77 91
3 91 77 92
3 77 93 92
3 77 78 93
3 78 94 93
3 79 80 95
3 95 80 96
3 80 81 96
3 96 81 97
3 81 82 97
3 97 82 98
3 82 83 98
3 98 83 99
3 83 84 99
3 99 84 100
3 84 85 100
3 100 85 101
3 85 86 101
3 101 86 102
3 86 87 102
3 102 87 103
3 87 88 103
3 103 88 104
3 88 89 104
3 104 89 105
3 89 90 105
3 105 90 106
3 90 91 106
3 106 91 107
3 91 92 107
3 107 92 108
3 92 109 108
3 92 93 109
3 93 110 109
3 93 94 110
3 95 111 112
3 95 96 111
3 96 113 111
3 96 97 113
3 97 98 113
3 113 98 114
3 98 99 114
3 114 99 115
3 99 100 115
3 115 100 116
3 100 101 116
3 116 101 117
3 101 102 117
3 117 102 118
3 102 103 118
3 118 103 119
3 103 104 119
3 119 104 120
3 104 105 120
3 120 105 121
3 105 106 121
3 121 106 122
3 106 107 122
3 122 107 123
3 107 108 123
3 123 108 124
3 108 125 124
3 108 109 125
3 109 126 125
3 109 110 126
3 112 127 128
3 112 111 127
3 111 129 127
3 111 113 129
3 113 130 129
3 113 114 130
3 114 131 130
3 114 115 131
3 115 116 131
3 131 116 132
3 116 133 132
3 116 117 133
3 117 134 133
3 117 118 134
3 118 119 134
3 134 119 135
3 119 120 135
3 135 120 136
3 120 121 136
3 136 121 137
3 121 122 137
3 137 122 138
3 122 123 138
3 138 123 139
3 123 124 139
3 139 124 140
3 124 141 140
3 124 125 141
3 125 142 141
3 125 126 142
3 128 143 144
3 128 127 143
3 127 145 143
3 127 129 145
3 129 146 145
3 129 130 146
3 130 147 146
3 130 131 147
3 131 132 147
3 147 132 148
3 132 133 148
3 148 133 149
3 133 150 149
3 133 134 150
3 134 135 150
3 150 135 151
3 135 136 151
3 151 136 152
3 136 137 152
3 152 137 153
3 137 138 153
3 153 138 154
3 138 139 154
3 154 139 155
3 139 156 155
3 139 140 156
3 140 157 156
3 140 141 157
3 141 158 157
3 141 142 158
3 144 143 159
3 143 160 159
3 143 145 160
3 145 161 160
3 145 146 161
3 146 147 161
3 161 147 162
3 147 148 162
3 162 148 163
3 148 149 163
3 163 149 164
3 149 150 164
3 164 150 165
3 150 151 165
3 165 151 166
3 151 152 166
3 166 152 167
3 152 153 167
3 167 153 168
3 153 154 168
3 168 154 169
3 154 155 169
3 169 155 170
3 155 156 170
3 170 156 171
3 156 172 171
3 156 157 172
3 157 173 172
3 157 158 173
3 158 174 173
3 159 175 176
3 159 160 175
3 160 161 175
3 175 161 177
3 161 162 177
3 177 162 178
3 162 163 178
3 178 163 179
3 163 180 179
3 163 164 180
3 164 165 180
3 180 165 181
3 165 166 181
3 181 166 182
3 166 167 182
3 182 167 183
3 167 168 183
3 183 168 184
3 168 169 184
3 184 169 185
3 169 170 185
3 185 170 186
3 170 171 186
3 186 171 187
3 171 188 187
3 171 172 188
3 172 189 188
3 172 173 189
3 173 190 189
3 173 174 190
3 176 175 191
3 191 175 192
3 175 177 192
3 192 177 193
3 177 178 193
3 193 178 194
3 178 179 194
3 194 179 195
3 179 180 195
3 195 180 196
3 180 181 196
3 196 181 197
3 181 182 197
3 197 182 198
3 182 183 198
3 198 183 199
3 183 184 199
3 199 184 200
3 184 185 200
3 200 185 201
3 185 186 201
3 201 186 202
3 186 187 202
3 202 187 203
3 187 204 203
3 187 188 204
3 188 205 204
3 188 189 205
3 189 206 205
3 189 190 206
3 191 207 208
3 191 192 207
3 192 193 207
3 207 193 209
3 193 194 209
3 209 194 210
3 194 195 210
3 210 195 211
3 195 196 211
3 211 196 212
3 196 197 212
3 212 197 213
3 197 198 213
3 213 198 214
3 198 199 214
3 214 199 215
3 199 200 215
3 215 200 216
3 200 201 216
3 216 201 217
3 201 202 217
3 217 202 218
3 202 203 218
3 218 203 219
3 203 220 219
3 203 204 220
3 204 221 220
3 204 205 221
3 205 222 221
3 205 206 222
3 208 207 223
3 223 207 224
3 207 209 224
3 224 209 225
3 209 210 225
3 225 210 226
3 210 211 226
3 226 211 227
3 211 212 227
3 227 212 228
3 212 213 228
3 228 213 229
3 213 214 229
3 229 214 230
3 214 215 230
3 230 215 231
3 215 216 231
3 231 216 232
3 216 217 232
3 232 217 233
3 217 218 233
3 233 218 234
3 218 219 234
3 220 221 235
3 221 236 235
3 221 222 236
3 223 224 237
3 237 224 238
3 224 225 238
3 238 225 239
3 225 226 239
3 239 226 240
3 226 227 240
3 240 227 241
3 227 228 241
3 241 228 242
3 228 229 242
3 242 229 243
3 229 230 243
3 243 230 244
3 230 231 244
CELL_DATA 427
SCALARS brightness_temperature float
LOOKUP_TABLE default
POINT_DATA 245
CELL_DATA 427
SCALARS emission_angle float
LOOKUP_TABLE default
POINT_DATA 245
CELL_DATA 427
SCALARS incidence_angle float
LOOKUP_TABLE default
POINT_DATA 245
CELL_DATA 427
SCALARS phase_angle float
LOOKUP_TABLE default
POINT_DATA 245
CELL_DATA 427
SCALARS local_solar_time float
LOOKUP_TABLE default
POINT_DATA 245
CELL_DATA 427
SCALARS local_solar_time_normal_vector float
LOOKUP_TABLE default
CELL_DATA 427
SCALARS pixel_x float
LOOKUP_TABLE default
POINT_DATA 245
CELL_DATA 427
SCALARS pixel_y float
LOOKUP_TABLE default
POINT_DATA 245
CELL_DATA 427
SCALARS longitude float
LOOKUP_TABLE default
POINT_DATA 245
CELL_DATA 427
SCALARS latitude float
LOOKUP_TABLE default
