# vtk DataFile Version 3.0
SHAPE_sfm_50k_v20200323
ASCII
DATASET POLYDATA
POINTS 564 float
0.43595 0.19132 -0.09277
0.4345 0.1889 -0.09513
0.43426 0.19183 -0.095
0.44129 0.19442 -0.08115
0.44142 0.19153 -0.08318
0.44026 0.19417 -0.08375
0.44037 0.19144 -0.08576
0.43939 0.19413 -0.0864
0.4396 0.19149 -0.08848
0.43843 0.19413 -0.08903
0.43818 0.19136 -0.09097
0.43674 0.1939 -0.09128
0.43533 0.19403 -0.09368
0.43377 0.19453 -0.09603
0.44775 0.19817 -0.06188
0.44809 0.19599 -0.06312
0.4468 0.19832 -0.06451
0.44743 0.19586 -0.06582
0.44594 0.1981 -0.06713
0.44685 0.19519 -0.06848
0.44531 0.1974 -0.06976
0.44625 0.19492 -0.07117
0.44455 0.19705 -0.07239
0.44505 0.19487 -0.07369
0.44334 0.19698 -0.07488
0.4438 0.19471 -0.07618
0.44216 0.19685 -0.0774
0.44247 0.19452 -0.0786
0.44091 0.1967 -0.07986
0.43991 0.19665 -0.08248
0.43902 0.19644 -0.08512
0.43815 0.1964 -0.08776
0.43688 0.19629 -0.09024
0.43552 0.19616 -0.09266
0.43387 0.19625 -0.09489
0.44915 0.19857 -0.05528
0.44946 0.19679 -0.05668
0.4482 0.19934 -0.05777
0.44855 0.1976 -0.05921
0.44737 0.20017 -0.06031
0.44657 0.20074 -0.06295
0.44562 0.20088 -0.06557
0.44463 0.20059 -0.06814
0.44388 0.19984 -0.07071
0.44314 0.19948 -0.07335
0.44197 0.19942 -0.07586
0.44081 0.19929 -0.07838
0.43966 0.19917 -0.08088
0.43866 0.19913 -0.08349
0.43774 0.19889 -0.0861
0.43691 0.19886 -0.08876
0.4358 0.19879 -0.09133
0.43393 0.1985 -0.09344
0.4325 0.19868 -0.09585
0.45022 0.19953 -0.04819
0.45094 0.19727 -0.05022
0.44961 0.19996 -0.05083
0.45019 0.19795 -0.05281
0.44864 0.20053 -0.05336
0.44774 0.20121 -0.05587
0.44691 0.20203 -0.05837
0.44616 0.20289 -0.0609
0.44536 0.20346 -0.06352
0.44457 0.20363 -0.06618
0.4436 0.20333 -0.06876
0.44263 0.2025 -0.07122
0.4415 0.20197 -0.07369
0.44054 0.20199 -0.07627
0.43944 0.20188 -0.07881
0.43822 0.20172 -0.08128
0.43711 0.20162 -0.08383
0.43628 0.20141 -0.08647
0.43555 0.20144 -0.08916
0.43426 0.2013 -0.09161
0.43268 0.20111 -0.09393
0.43184 0.20144 -0.09657
0.45114 0.19942 -0.04273
0.45097 0.1995 -0.04552
0.44942 0.20196 -0.0433
0.44927 0.20206 -0.04607
0.44879 0.20222 -0.04877
0.44811 0.20259 -0.0514
0.44722 0.2032 -0.05394
0.4465 0.20394 -0.05649
0.4458 0.20479 -0.05902
0.44512 0.20567 -0.06155
0.44463 0.20631 -0.06424
0.44354 0.20639 -0.06679
0.44265 0.20611 -0.06939
0.44185 0.20532 -0.07193
0.44045 0.2047 -0.07425
0.43931 0.20465 -0.07675
0.43782 0.20435 -0.07908
0.43658 0.20418 -0.08154
0.43552 0.20409 -0.08412
0.43476 0.20391 -0.08678
0.434 0.20391 -0.08944
0.43264 0.20375 -0.09186
0.43173 0.20381 -0.09451
0.4481 0.20477 -0.04372
0.44814 0.20492 -0.04651
0.44748 0.20499 -0.04918
0.4468 0.20536 -0.05183
0.44622 0.20606 -0.05444
0.44544 0.20677 -0.05698
0.44482 0.20764 -0.05952
0.44459 0.20861 -0.06211
0.44375 0.20916 -0.06469
0.4429 0.20934 -0.06735
0.4416 0.20893 -0.06976
0.44042 0.20798 -0.07207
0.43918 0.20739 -0.07446
0.43787 0.20725 -0.07688
0.43646 0.20698 -0.07925
0.43532 0.20684 -0.08176
0.43425 0.20674 -0.08431
0.43338 0.20651 -0.08693
0.43269 0.20651 -0.08961
0.43175 0.20653 -0.0922
0.43103 0.20662 -0.09488
0.44712 0.2077 -0.04418
0.44684 0.2077 -0.04692
0.4463 0.20782 -0.04962
0.44575 0.20822 -0.05229
0.44523 0.20892 -0.05491
0.44481 0.20972 -0.05749
0.44459 0.21065 -0.06007
0.44413 0.21164 -0.06267
0.44254 0.21195 -0.06504
0.44104 0.21179 -0.06735
0.4397 0.21129 -0.0697
0.43864 0.21038 -0.07208
0.43748 0.20982 -0.07451
0.43633 0.20978 -0.077
0.43529 0.20968 -0.07956
0.4341 0.20952 -0.08203
0.43311 0.20945 -0.08462
0.43234 0.20924 -0.08727
0.43173 0.20926 -0.08995
0.43124 0.20941 -0.09266
0.4303 0.20941 -0.09527
0.44647 0.21052 -0.04224
0.44619 0.21055 -0.04499
0.44568 0.21048 -0.04769
0.44522 0.21062 -0.0504
0.44475 0.21102 -0.05307
0.44441 0.21176 -0.05571
0.44415 0.21259 -0.05831
0.44373 0.21355 -0.06094
0.44215 0.214 -0.06327
0.44026 0.21394 -0.06537
0.43872 0.21371 -0.06766
0.43756 0.21334 -0.07011
0.43667 0.21256 -0.07261
0.43559 0.21206 -0.07508
0.4346 0.2121 -0.07762
0.43369 0.21208 -0.08022
0.43276 0.21204 -0.08279
0.43198 0.21205 -0.08545
0.43114 0.2118 -0.08808
0.43048 0.21179 -0.09074
0.4297 0.21181 -0.09337
0.42885 0.21182 -0.09601
0.44504 0.21318 -0.04301
0.44503 0.21331 -0.04579
0.44477 0.21332 -0.04852
0.44409 0.21337 -0.05119
0.44358 0.21374 -0.05387
0.44327 0.21448 -0.05652
0.44258 0.21511 -0.05911
0.44131 0.21548 -0.06153
0.43962 0.2157 -0.0637
0.43792 0.2158 -0.06592
0.43644 0.21559 -0.06825
0.43533 0.21526 -0.07073
0.43454 0.21456 -0.07328
0.43363 0.21416 -0.07585
0.43277 0.21429 -0.07845
0.432 0.21435 -0.08109
0.43124 0.21439 -0.08372
0.43036 0.21435 -0.08634
0.42954 0.21409 -0.08897
0.4289 0.2141 -0.09165
0.42802 0.21404 -0.09424
0.42747 0.21421 -0.09693
0.44417 0.21611 -0.04372
0.4438 0.21608 -0.04647
0.4436 0.2161 -0.04921
0.443 0.21618 -0.05189
0.44256 0.21656 -0.05458
0.44172 0.21703 -0.05715
0.44051 0.2173 -0.0596
0.43908 0.2175 -0.06193
0.43744 0.21777 -0.06412
0.43582 0.21792 -0.06638
0.43431 0.21769 -0.06868
0.43316 0.21731 -0.07117
0.43253 0.21672 -0.0738
0.43178 0.21643 -0.07644
0.43102 0.21661 -0.07908
0.43028 0.21667 -0.08173
0.42958 0.21674 -0.08439
0.42868 0.21668 -0.08699
0.42782 0.21637 -0.08959
0.42691 0.21618 -0.09219
0.42611 0.21615 -0.09483
0.44365 0.21917 -0.04375
0.44317 0.21913 -0.04646
0.44258 0.21903 -0.04915
0.44221 0.21917 -0.05187
0.44152 0.21944 -0.0545
0.44033 0.21974 -0.05695
0.43886 0.21983 -0.05927
0.43745 0.22004 -0.06163
0.43584 0.22032 -0.06383
0.43418 0.22043 -0.06601
0.43278 0.22027 -0.06837
0.43173 0.21995 -0.07091
0.43107 0.21932 -0.0735
0.43031 0.21902 -0.07613
0.42955 0.21918 -0.07879
0.42891 0.21929 -0.08146
0.42805 0.21925 -0.08406
0.42709 0.21913 -0.08662
0.42618 0.21875 -0.08918
0.42505 0.21837 -0.09167
0.42425 0.21834 -0.09433
0.42354 0.21835 -0.09699
0.44271 0.22213 -0.04582
0.44319 0.22217 -0.04311
0.44223 0.22206 -0.04851
0.4419 0.22222 -0.05125
0.44093 0.22241 -0.05384
0.43928 0.22247 -0.05606
0.43778 0.22253 -0.05835
0.43635 0.22271 -0.06068
0.43474 0.22298 -0.06287
0.43312 0.22311 -0.06506
0.43178 0.22296 -0.06745
0.43081 0.22266 -0.07
0.43018 0.22205 -0.07259
0.42951 0.22177 -0.07524
0.42871 0.22189 -0.07787
0.42838 0.2221 -0.08061
0.42745 0.22204 -0.08321
0.42599 0.22162 -0.0855
0.42493 0.22113 -0.08797
0.42379 0.22073 -0.09044
0.4229 0.22061 -0.09305
0.42217 0.22059 -0.0957
0.44184 0.22499 -0.04504
0.44119 0.22484 -0.04768
0.44057 0.22489 -0.05034
0.43971 0.22511 -0.05293
0.43816 0.22517 -0.0552
0.43658 0.22516 -0.05742
0.43517 0.22535 -0.05976
0.4337 0.2257 -0.06203
0.43204 0.22581 -0.06419
0.43068 0.22563 -0.06656
0.42981 0.22537 -0.06917
0.42941 0.22483 -0.07182
0.42874 0.22453 -0.07444
0.42787 0.2246 -0.07703
0.42731 0.22471 -0.0797
0.42652 0.22472 -0.08235
0.42496 0.22421 -0.08456
0.42382 0.22366 -0.08697
0.42265 0.22323 -0.08941
0.42173 0.22307 -0.09199
0.42085 0.22293 -0.09457
0.43961 0.22741 -0.04698
0.44025 0.22755 -0.04434
0.43881 0.22732 -0.04958
0.4378 0.22741 -0.05208
0.43655 0.22768 -0.05448
0.43516 0.22777 -0.05681
0.43382 0.228 -0.05917
0.43242 0.22839 -0.06146
0.43104 0.22864 -0.06379
0.42977 0.22851 -0.0662
0.4289 0.22824 -0.0688
0.42874 0.22773 -0.07149
0.42785 0.22734 -0.07402
0.42687 0.22735 -0.07655
0.42602 0.22731 -0.07914
0.42492 0.22712 -0.08161
0.42364 0.22679 -0.08398
0.42251 0.22622 -0.08639
0.42147 0.22586 -0.08888
0.4204 0.22559 -0.09137
0.41922 0.22522 -0.09379
0.41792 0.22476 -0.09612
0.43805 0.22996 -0.04618
0.4387 0.23011 -0.04355
0.43737 0.22994 -0.0488
0.43637 0.23002 -0.05131
0.43511 0.23026 -0.0537
0.4337 0.23033 -0.05603
0.43247 0.23062 -0.05843
0.43135 0.23116 -0.06085
0.4303 0.23154 -0.06331
0.42933 0.23148 -0.06585
0.42874 0.23124 -0.06851
0.42828 0.23066 -0.07113
0.42713 0.23019 -0.07353
0.42592 0.2301 -0.07596
0.42498 0.23001 -0.07851
0.42394 0.22984 -0.08102
0.42255 0.22944 -0.08332
0.42128 0.22877 -0.08563
0.42008 0.22829 -0.08802
0.41906 0.22804 -0.09053
0.41778 0.2276 -0.09288
0.41652 0.22719 -0.09525
0.43663 0.23251 -0.04516
0.43608 0.23257 -0.0478
0.43491 0.23251 -0.05024
0.43366 0.23274 -0.05263
0.43245 0.23294 -0.05505
0.43141 0.23333 -0.05753
0.43036 0.23389 -0.05996
0.42949 0.23433 -0.06248
0.42893 0.23437 -0.06513
0.42853 0.23416 -0.06782
0.42827 0.23366 -0.07057
0.42671 0.23304 -0.07276
0.42534 0.23288 -0.07509
0.42445 0.2328 -0.07766
0.42322 0.23254 -0.08006
0.42173 0.23209 -0.08229
0.42042 0.23138 -0.08455
0.41912 0.23084 -0.08688
0.41817 0.23061 -0.08942
0.417 0.23022 -0.09183
0.41533 0.22947 -0.09383
0.41382 0.22898 -0.09601
0.43453 0.23505 -0.04678
0.43516 0.23505 -0.04417
0.43357 0.23511 -0.04928
0.43241 0.23538 -0.05171
0.43146 0.2357 -0.05421
0.43045 0.23608 -0.05669
0.4294 0.23665 -0.05912
0.42888 0.2372 -0.06172
0.42813 0.23716 -0.06431
0.42765 0.23691 -0.06699
0.4271 0.23632 -0.06958
0.42608 0.23586 -0.07201
0.42498 0.23578 -0.07446
0.42417 0.23571 -0.07707
0.42279 0.23539 -0.07941
0.4213 0.23493 -0.08162
0.41979 0.23414 -0.08371
0.41847 0.23359 -0.08603
0.41791 0.23346 -0.08873
0.41672 0.23308 -0.09119
0.41465 0.23211 -0.09273
0.41302 0.23152 -0.09479
0.43356 0.23781 -0.0458
0.43385 0.23764 -0.04311
0.43242 0.23777 -0.04825
0.43145 0.23812 -0.05074
0.43045 0.23839 -0.05321
0.42943 0.23876 -0.05568
0.42893 0.23952 -0.05823
0.42863 0.24022 -0.06091
0.42725 0.23986 -0.06329
0.42646 0.23941 -0.06582
0.42604 0.23888 -0.06843
0.42545 0.23863 -0.07105
0.42424 0.23848 -0.07346
0.42313 0.23828 -0.07591
0.42228 0.23818 -0.07848
0.42113 0.23787 -0.08096
0.41951 0.23698 -0.08296
0.41812 0.23638 -0.08515
0.41718 0.23612 -0.08768
0.41597 0.23574 -0.09012
0.4141 0.23487 -0.09194
0.41237 0.23422 -0.09388
0.43229 0.24059 -0.04529
0.431 0.24044 -0.04769
0.43009 0.2408 -0.05019
0.42918 0.24111 -0.05268
0.42831 0.24154 -0.05518
0.42789 0.24235 -0.05774
0.42669 0.24257 -0.06015
0.42554 0.24224 -0.06253
0.42482 0.24181 -0.06508
0.42447 0.24132 -0.06769
0.42398 0.24115 -0.07032
0.423 0.24112 -0.07282
0.42185 0.24088 -0.07523
0.42074 0.2406 -0.07765
0.4198 0.24046 -0.0802
0.41843 0.23967 -0.08239
0.41705 0.23905 -0.0846
0.4157 0.23852 -0.08684
0.41441 0.23804 -0.08914
0.41319 0.23763 -0.09152
0.41136 0.23691 -0.09338
0.40955 0.23608 -0.0952
0.41068 0.23345 -0.09584
0.43039 0.24305 -0.0451
0.42948 0.24311 -0.0476
0.42859 0.24346 -0.05009
0.42791 0.24387 -0.05263
0.42716 0.24435 -0.05514
0.42617 0.24486 -0.05756
0.42483 0.24494 -0.05987
0.42377 0.24467 -0.06229
0.42317 0.24431 -0.06487
0.4228 0.24378 -0.06745
0.42222 0.24354 -0.07003
0.42121 0.24347 -0.0725
0.42003 0.24318 -0.07487
0.41891 0.24289 -0.07726
0.41793 0.2427 -0.07974
0.4167 0.24203 -0.082
0.41552 0.24153 -0.08434
0.41418 0.24099 -0.08658
0.41302 0.24059 -0.08894
0.41175 0.24016 -0.09128
0.41005 0.23951 -0.09325
0.40836 0.23875 -0.09516
0.42901 0.24581 -0.04485
0.42817 0.24589 -0.04737
0.42747 0.24631 -0.04989
0.42683 0.24671 -0.05243
0.42588 0.24709 -0.05489
0.42467 0.24746 -0.05722
0.42356 0.24767 -0.0596
0.42266 0.24748 -0.06207
0.42196 0.24705 -0.06459
0.42141 0.24641 -0.0671
0.42059 0.24599 -0.06958
0.4194 0.24576 -0.07194
0.41828 0.24551 -0.07433
0.41724 0.24528 -0.07676
0.41618 0.24501 -0.07917
0.41509 0.24444 -0.08151
0.41387 0.2439 -0.0838
0.41266 0.24345 -0.08611
0.41155 0.24307 -0.0885
0.41017 0.24255 -0.09071
0.40863 0.24203 -0.0928
0.40719 0.24142 -0.09493
0.4276 0.24854 -0.04457
0.42699 0.24872 -0.04713
0.42638 0.24916 -0.04966
0.42591 0.24961 -0.05224
0.42477 0.24989 -0.05463
0.42343 0.2502 -0.05688
0.42237 0.25043 -0.05928
0.42141 0.25019 -0.06171
0.42068 0.24973 -0.0642
0.41994 0.24897 -0.06662
0.41905 0.24848 -0.06904
0.41793 0.24829 -0.07142
0.41687 0.24807 -0.07383
0.41579 0.24779 -0.07622
0.41465 0.24747 -0.07857
0.41371 0.24697 -0.08098
0.41265 0.24653 -0.08336
0.41171 0.24618 -0.0858
0.41041 0.24569 -0.08805
0.4089 0.24511 -0.09013
0.40747 0.24466 -0.0923
0.40631 0.24418 -0.09462
0.42623 0.25131 -0.04456
0.42568 0.2515 -0.04712
0.42519 0.25197 -0.04966
0.4247 0.25242 -0.05222
0.42349 0.25265 -0.05456
0.4221 0.25293 -0.05678
0.42101 0.25313 -0.05915
0.42031 0.25299 -0.06167
0.41953 0.25249 -0.06413
0.41865 0.25166 -0.06646
0.41767 0.25111 -0.06882
0.4166 0.25093 -0.07121
0.41548 0.25066 -0.07356
0.41427 0.25031 -0.07587
0.41323 0.25003 -0.07826
0.41239 0.24959 -0.08071
0.41163 0.24927 -0.08321
0.41139 0.24911 -0.08589
0.41021 0.24861 -0.08827
0.40859 0.248 -0.09029
0.40683 0.24752 -0.09219
0.40542 0.24694 -0.09433
0.42528 0.25425 -0.04453
0.42459 0.25437 -0.04705
0.42388 0.25474 -0.04954
0.4232 0.25507 -0.05204
0.42207 0.25533 -0.05438
0.42086 0.25571 -0.05668
0.42013 0.25604 -0.05918
0.41937 0.25585 -0.06166
0.41848 0.25529 -0.06406
0.41763 0.25447 -0.06638
0.4165 0.25385 -0.06865
0.4153 0.25359 -0.07095
0.4141 0.25327 -0.07326
0.41303 0.25299 -0.07563
0.41208 0.25274 -0.07806
0.41138 0.25234 -0.08054
0.41072 0.25205 -0.08306
0.41038 0.25189 -0.08568
0.4097 0.25158 -0.08825
0.40853 0.25099 -0.0906
0.40689 0.25049 -0.09266
0.40488 0.24981 -0.0943
0.4241 0.25709 -0.04424
0.42349 0.25723 -0.04677
0.42272 0.25755 -0.04924
0.42195 0.25783 -0.05171
0.42101 0.25817 -0.05412
0.42032 0.25871 -0.05658
0.41992 0.25911 -0.05916
0.41875 0.2588 -0.06151
0.4176 0.25814 -0.06377
0.41668 0.25729 -0.06605
0.41553 0.25664 -0.06829
0.41425 0.25633 -0.07054
0.41312 0.25604 -0.07288
0.41198 0.25572 -0.07521
0.41096 0.25543 -0.07759
0.41033 0.25504 -0.08009
0.40978 0.25478 -0.08263
0.40897 0.25442 -0.08509
0.40819 0.25409 -0.08756
0.4075 0.25381 -0.0901
0.4062 0.25345 -0.09249
0.40414 0.25268 -0.09411
0.4028 0.24907 -0.09571
0.42248 0.26004 -0.04605
0.42297 0.25987 -0.0435
0.42174 0.26036 -0.04852
0.42097 0.26062 -0.051
0.42006 0.26096 -0.05342
0.41943 0.26152 -0.05588
0.41885 0.26189 -0.0584
0.41785 0.26162 -0.06082
0.41656 0.26084 -0.06297
0.41574 0.26002 -0.06528
0.41482 0.25947 -0.06766
0.41354 0.25915 -0.06992
0.41228 0.25879 -0.07218
0.41099 0.25838 -0.07441
0.40993 0.25807 -0.07678
0.40933 0.25768 -0.07928
0.40853 0.25728 -0.08173
0.40765 0.25685 -0.08414
0.40648 0.25622 -0.08642
0.40595 0.25612 -0.08902
0.40498 0.25607 -0.09155
0.4031 0.25541 -0.09342
0.40089 0.25449 -0.09459
0.40198 0.25187 -0.09538
0.42175 0.26281 -0.04487
0.42125 0.26321 -0.04742
0.42027 0.26337 -0.04985
POLYGONS 1028 4112
3 0 1 2
3 3 4 5
3 5 6 7
3 6 8 7
3 7 8 9
3 8 10 9
3 9 10 11
3 10 0 11
3 11 0 12
3 0 2 12
3 12 2 13
3 14 15 16
3 15 17 16
3 16 17 18
3 17 19 18
3 18 19 20
3 19 21 20
3 20 21 22
3 21 23 22
3 22 23 24
3 23 25 24
3 24 25 26
3 25 27 26
3 26 27 28
3 27 3 28
3 28 3 29
3 3 5 29
3 29 5 30
3 5 7 30
3 30 7 31
3 7 9 31
3 31 9 32
3 9 11 32
3 32 11 33
3 11 12 33
3 33 12 34
3 12 13 34
3 35 36 37
3 36 38 37
3 37 38 39
3 38 14 39
3 39 14 40
3 14 16 40
3 40 16 41
3 16 18 41
3 41 18 42
3 18 20 42
3 42 20 43
3 20 22 43
3 43 22 44
3 22 24 44
3 44 24 45
3 24 26 45
3 45 26 46
3 26 28 46
3 46 28 47
3 28 29 47
3 47 29 48
3 29 30 48
3 48 30 49
3 30 31 49
3 49 31 50
3 31 32 50
3 50 32 51
3 32 33 51
3 51 33 52
3 33 34 52
3 52 34 53
3 54 55 56
3 55 57 56
3 56 57 58
3 57 35 58
3 58 35 59
3 35 37 59
3 59 37 60
3 37 39 60
3 60 39 61
3 39 40 61
3 61 40 62
3 40 41 62
3 62 41 63
3 41 42 63
3 63 42 64
3 42 43 64
3 64 43 65
3 43 44 65
3 65 44 66
3 44 45 66
3 66 45 67
3 45 46 67
3 67 46 68
3 46 47 68
3 68 47 69
3 47 48 69
3 69 48 70
3 48 49 70
3 70 49 71
3 49 50 71
3 71 50 72
3 50 51 72
3 72 51 73
3 51 52 73
3 73 52 74
3 52 53 74
3 74 53 75
3 76 77 78
3 78 77 79
3 77 54 79
3 79 54 80
3 54 56 80
3 80 56 81
3 56 58 81
3 81 58 82
3 58 59 82
3 82 59 83
3 59 60 83
3 83 60 84
3 60 61 84
3 84 61 85
3 61 62 85
3 85 62 86
3 62 63 86
3 86 63 87
3 63 64 87
3 87 64 88
3 64 65 88
3 88 65 89
3 65 66 89
3 89 66 90
3 66 67 90
3 90 67 91
3 67 68 91
3 91 68 92
3 68 69 92
3 92 69 93
3 69 70 93
3 93 70 94
3 70 71 94
3 94 71 95
3 71 72 95
3 95 72 96
3 72 73 96
3 96 73 97
3 73 74 97
3 97 74 98
3 74 75 98
3 78 79 99
3 99 79 100
3 79 80 100
3 100 80 101
3 80 81 101
3 101 81 102
3 81 82 102
3 102 82 103
3 82 83 103
3 103 83 104
3 83 84 104
3 104 84 105
3 84 85 105
3 105 85 106
3 85 86 106
3 106 86 107
3 86 87 107
3 107 87 108
3 87 88 108
3 108 88 109
3 88 110 109
3 88 89 110
3 89 90 110
3 110 90 111
3 90 91 111
3 111 91 112
3 91 92 112
3 112 92 113
3 92 93 113
3 113 93 114
3 93 94 114
3 114 94 115
3 94 95 115
3 115 95 116
3 95 96 116
3 116 96 117
3 96 97 117
3 117 97 118
3 97 98 118
3 118 98 119
3 99 100 120
3 120 100 121
3 100 101 121
3 121 101 122
3 101 102 122
3 122 102 123
3 102 103 123
3 123 103 124
3 103 104 124
3 124 104 125
3 104 105 125
3 125 105 126
3 105 106 126
3 126 106 127
3 106 107 127
3 127 107 128
3 107 108 128
3 128 108 129
3 108 109 129
3 129 109 130
3 109 131 130
3 109 110 131
3 110 111 131
3 131 111 132
3 111 112 132
3 132 112 133
3 112 113 133
3 133 113 134
3 113 114 134
3 134 114 135
3 114 115 135
3 135 115 136
3 115 116 136
3 136 116 137
3 116 117 137
3 137 117 138
3 117 118 138
3 138 118 139
3 118 119 139
3 139 119 140
3 141 120 142
3 120 121 142
3 142 121 143
3 121 122 143
3 143 122 144
3 122 123 144
3 144 123 145
3 123 124 145
3 145 124 146
3 124 125 146
3 146 125 147
3 125 126 147
3 147 126 148
3 126 127 148
3 148 127 149
3 127 128 149
3 149 128 150
3 128 129 150
3 150 129 151
3 129 130 151
3 151 130 152
3 130 131 152
3 152 131 153
3 131 132 153
3 153 132 154
3 132 133 154
3 154 133 155
3 133 134 155
3 155 134 156
3 134 135 156
3 156 135 157
3 135 136 157
3 157 136 158
3 136 137 158
3 158 137 159
3 137 138 159
3 159 138 160
3 138 139 160
3 160 139 161
3 139 140 161
3 161 140 162
3 141 142 163
3 163 142 164
3 142 143 164
3 164 143 165
3 143 144 165
3 165 144 166
3 144 145 166
3 166 145 167
3 145 146 167
3 167 146 168
3 146 147 168
3 168 147 169
3 147 148 169
3 169 148 170
3 148 149 170
3 170 149 171
3 149 150 171
3 171 150 172
3 150 151 172
3 172 151 173
3 151 152 173
3 173 152 174
3 152 153 174
3 174 153 175
3 153 154 175
3 175 154 176
3 154 155 176
3 176 155 177
3 155 156 177
3 177 156 178
3 156 157 178
3 178 157 179
3 157 158 179
3 179 158 180
3 158 159 180
3 180 159 181
3 159 160 181
3 181 160 182
3 160 161 182
3 182 161 183
3 161 162 183
3 183 162 184
3 163 164 185
3 185 164 186
3 164 165 186
3 186 165 187
3 165 166 187
3 187 166 188
3 166 167 188
3 188 167 189
3 167 168 189
3 189 168 190
3 168 169 190
3 190 169 191
3 169 170 191
3 191 170 192
3 170 171 192
3 192 171 193
3 171 172 193
3 193 172 194
3 172 173 194
3 194 173 195
3 173 174 195
3 195 174 196
3 174 175 196
3 196 175 197
3 175 176 197
3 197 176 198
3 176 177 198
3 198 177 199
3 177 178 199
3 199 178 200
3 178 179 200
3 200 179 201
3 179 180 201
3 201 180 202
3 180 181 202
3 202 181 203
3 181 182 203
3 203 182 204
3 182 183 204
3 204 183 205
3 183 184 205
3 185 186 206
3 206 186 207
3 186 187 207
3 207 187 208
3 187 188 208
3 208 188 209
3 188 189 209
3 209 189 210
3 189 190 210
3 210 190 211
3 190 191 211
3 211 191 212
3 191 192 212
3 212 192 213
3 192 193 213
3 213 193 214
3 193 194 214
3 214 194 215
3 194 195 215
3 215 195 216
3 195 217 216
3 195 196 217
3 196 218 217
3 196 197 218
3 197 219 218
3 197 198 219
3 198 199 219
3 219 199 220
3 199 200 220
3 220 200 221
3 200 201 221
3 221 201 222
3 201 202 222
3 222 202 223
3 202 224 223
3 202 203 224
3 203 225 224
3 203 204 225
3 204 226 225
3 204 205 226
3 205 227 226
3 206 228 229
3 206 207 228
3 207 230 228
3 207 208 230
3 208 231 230
3 208 209 231
3 209 232 231
3 209 210 232
3 210 211 232
3 232 211 233
3 211 234 233
3 211 212 234
3 212 235 234
3 212 213 235
3 213 214 235
3 235 214 236
3 214 215 236
3 236 215 237
3 215 238 237
3 215 216 238
3 216 239 238
3 216 217 239
3 217 240 239
3 217 218 240
3 218 241 240
3 218 219 241
3 219 242 241
3 219 220 242
3 220 243 242
3 220 221 243
3 221 244 243
3 221 222 244
3 222 245 244
3 222 223 245
3 223 246 245
3 223 224 246
3 224 247 246
3 224 225 247
3 225 248 247
3 225 226 248
3 226 249 248
3 226 227 249
3 229 228 250
3 228 251 250
3 228 230 251
3 230 252 251
3 230 231 252
3 231 253 252
3 231 232 253
3 232 233 253
3 253 233 254
3 233 255 254
3 233 234 255
3 234 235 255
3 255 235 256
3 235 236 256
3 256 236 257
3 236 237 257
3 257 237 258
3 237 259 258
3 237 238 259
3 238 260 259
3 238 239 260
3 239 261 260
3 239 240 261
3 240 262 261
3 240 241 262
3 241 263 262
3 241 242 263
3 242 264 263
3 242 243 264
3 243 265 264
3 243 244 265
3 244 266 265
3 244 245 266
3 245 267 266
3 245 246 267
3 246 268 267
3 246 247 268
3 247 269 268
3 247 248 269
3 248 270 269
3 248 249 270
3 250 271 272
3 250 251 271
3 251 273 271
3 251 252 273
3 252 274 273
3 252 253 274
3 253 254 274
3 274 254 275
3 254 255 275
3 275 255 276
3 255 256 276
3 276 256 277
3 256 257 277
3 277 257 278
3 257 258 278
3 278 258 279
3 258 259 279
3 279 259 280
3 259 281 280
3 259 260 281
3 260 282 281
3 260 261 282
3 261 283 282
3 261 262 283
3 262 284 283
3 262 263 284
3 263 285 284
3 263 264 285
3 264 286 285
3 264 265 286
3 265 287 286
3 265 266 287
3 266 288 287
3 266 267 288
3 267 289 288
3 267 268 289
3 268 290 289
3 268 269 290
3 269 291 290
3 269 270 291
3 270 292 291
3 272 293 294
3 272 271 293
3 271 295 293
3 271 273 295
3 273 296 295
3 273 274 296
3 274 275 296
3 296 275 297
3 275 276 297
3 297 276 298
3 276 277 298
3 298 277 299
3 277 278 299
3 299 278 300
3 278 279 300
3 300 279 301
3 279 302 301
3 279 280 302
3 280 303 302
3 280 281 303
3 281 304 303
3 281 282 304
3 282 305 304
3 282 283 305
3 283 306 305
3 283 284 306
3 284 307 306
3 284 285 307
3 285 308 307
3 285 286 308
3 286 309 308
3 286 287 309
3 287 310 309
3 287 288 310
3 288 311 310
3 288 289 311
3 289 312 311
3 289 290 312
3 290 313 312
3 290 291 313
3 291 314 313
3 291 292 314
3 294 293 315
3 293 316 315
3 293 295 316
3 295 317 316
3 295 296 317
3 296 318 317
3 296 297 318
3 297 319 318
3 297 298 319
3 298 320 319
3 298 299 320
3 299 300 320
3 320 300 321
3 300 322 321
3 300 301 322
3 301 323 322
3 301 302 323
3 302 324 323
3 302 303 324
3 303 325 324
3 303 304 325
3 304 326 325
3 304 305 326
3 305 327 326
3 305 306 327
3 306 328 327
3 306 307 328
3 307 329 328
3 307 308 329
3 308 330 329
3 308 309 330
3 309 331 330
3 309 310 331
3 310 332 331
3 310 311 332
3 311 333 332
3 311 312 333
3 312 334 333
3 312 313 334
3 313 335 334
3 313 314 335
3 314 336 335
3 315 337 338
3 315 316 337
3 316 339 337
3 316 317 339
3 317 340 339
3 317 318 340
3 318 341 340
3 318 319 341
3 319 320 341
3 341 320 342
3 320 321 342
3 342 321 343
3 321 344 343
3 321 322 344
3 322 345 344
3 322 323 345
3 323 346 345
3 323 324 346
3 324 347 346
3 324 325 347
3 325 348 347
3 325 326 348
3 326 349 348
3 326 327 349
3 327 350 349
3 327 328 350
3 328 351 350
3 328 329 351
3 329 352 351
3 329 330 352
3 330 353 352
3 330 331 353
3 331 354 353
3 331 332 354
3 332 355 354
3 332 333 355
3 333 356 355
3 333 334 356
3 334 357 356
3 334 335 357
3 335 358 357
3 335 336 358
3 338 359 360
3 338 337 359
3 337 361 359
3 337 339 361
3 339 362 361
3 339 340 362
3 340 363 362
3 340 341 363
3 341 364 363
3 341 342 364
3 342 343 364
3 364 343 365
3 343 366 365
3 343 344 366
3 344 367 366
3 344 345 367
3 345 368 367
3 345 346 368
3 346 369 368
3 346 347 369
3 347 370 369
3 347 348 370
3 348 371 370
3 348 349 371
3 349 372 371
3 349 350 372
3 350 373 372
3 350 351 373
3 351 374 373
3 351 352 374
3 352 375 374
3 352 353 375
3 353 376 375
3 353 354 376
3 354 377 376
3 354 355 377
3 355 378 377
3 355 356 378
3 356 379 378
3 356 357 379
3 357 380 379
3 357 358 380
3 360 359 381
3 359 361 381
3 381 361 382
3 361 362 382
3 382 362 383
3 362 363 383
3 383 363 384
3 363 364 384
3 384 364 385
3 364 365 385
3 385 365 386
3 365 366 386
3 386 366 387
3 366 388 387
3 366 367 388
3 367 389 388
3 367 368 389
3 368 390 389
3 368 369 390
3 369 391 390
3 369 370 391
3 370 392 391
3 370 371 392
3 371 393 392
3 371 372 393
3 372 394 393
3 372 373 394
3 373 395 394
3 373 374 395
3 374 396 395
3 374 375 396
3 375 397 396
3 375 376 397
3 376 398 397
3 376 377 398
3 377 399 398
3 377 378 399
3 378 400 399
3 378 379 400
3 379 401 400
3 379 380 401
3 380 402 401
3 380 403 402
3 381 382 404
3 404 382 405
3 382 383 405
3 405 383 406
3 383 384 406
3 406 384 407
3 384 385 407
3 407 385 408
3 385 386 408
3 408 386 409
3 386 387 409
3 409 387 410
3 387 388 410
3 410 388 411
3 388 412 411
3 388 389 412
3 389 413 412
3 389 390 413
3 390 414 413
3 390 391 414
3 391 392 414
3 414 392 415
3 392 393 415
3 415 393 416
3 393 394 416
3 416 394 417
3 394 395 417
3 417 395 418
3 395 419 418
3 395 396 419
3 396 420 419
3 396 397 420
3 397 398 420
3 420 398 421
3 398 399 421
3 421 399 422
3 399 400 422
3 422 400 423
3 400 401 423
3 423 401 424
3 401 402 424
3 424 402 425
3 404 405 426
3 426 405 427
3 405 406 427
3 427 406 428
3 406 407 428
3 428 407 429
3 407 408 429
3 429 408 430
3 408 409 430
3 430 409 431
3 409 410 431
3 431 410 432
3 410 411 432
3 432 411 433
3 411 434 433
3 411 412 434
3 412 435 434
3 412 413 435
3 413 436 435
3 413 414 436
3 414 415 436
3 436 415 437
3 415 438 437
3 415 416 438
3 416 439 438
3 416 417 439
3 417 440 439
3 417 418 440
3 418 441 440
3 418 419 441
3 419 442 441
3 419 420 442
3 420 443 442
3 420 421 443
3 421 444 443
3 421 422 444
3 422 445 444
3 422 423 445
3 423 446 445
3 423 424 446
3 424 447 446
3 424 425 447
3 426 427 448
3 448 427 449
3 427 428 449
3 449 428 450
3 428 429 450
3 450 429 451
3 429 430 451
3 451 430 452
3 430 431 452
3 452 431 453
3 431 432 453
3 453 432 454
3 432 455 454
3 432 433 455
3 433 456 455
3 433 434 456
3 434 457 456
3 434 435 457
3 435 458 457
3 435 436 458
3 436 459 458
3 436 437 459
3 437 460 459
3 437 438 460
3 438 461 460
3 438 439 461
3 439 462 461
3 439 440 462
3 440 463 462
3 440 441 463
3 441 464 463
3 441 442 464
3 442 465 464
3 442 443 465
3 443 466 465
3 443 444 466
3 444 467 466
3 444 445 467
3 445 468 467
3 445 446 468
3 446 469 468
3 446 447 469
3 448 449 470
3 470 449 471
3 449 450 471
3 471 450 472
3 450 451 472
3 472 451 473
3 451 452 473
3 473 452 474
3 452 453 474
3 474 453 475
3 453 454 475
3 475 454 476
3 454 455 476
3 476 455 477
3 455 478 477
3 455 456 478
3 456 479 478
3 456 457 479
3 457 480 479
3 457 458 480
3 458 459 480
3 480 459 481
3 459 460 481
3 481 460 482
3 460 461 482
3 482 461 483
3 461 462 483
3 483 462 484
3 462 485 484
3 462 463 485
3 463 486 485
3 463 464 486
3 464 487 486
3 464 465 487
3 465 466 487
3 487 466 488
3 466 467 488
3 488 467 489
3 467 468 489
3 489 468 490
3 468 491 490
3 468 469 491
3 470 471 492
3 492 471 493
3 471 472 493
3 493 472 494
3 472 473 494
3 494 473 495
3 473 474 495
3 495 474 496
3 474 475 496
3 496 475 497
3 475 476 497
3 497 476 498
3 476 477 498
3 498 477 499
3 477 500 499
3 477 478 500
3 478 501 500
3 478 479 501
3 479 502 501
3 479 480 502
3 480 481 502
3 502 481 503
3 481 482 503
3 503 482 504
3 482 483 504
3 504 483 505
3 483 484 505
3 505 484 506
3 484 507 506
3 484 485 507
3 485 508 507
3 485 486 508
3 486 509 508
3 486 487 509
3 487 510 509
3 487 488 510
3 488 489 510
3 510 489 511
3 489 490 511
3 511 490 512
3 490 491 512
3 512 491 513
3 492 493 514
3 514 493 515
3 493 494 515
3 515 494 516
3 494 495 516
3 516 495 517
3 495 496 517
3 517 496 518
3 496 497 518
3 518 497 519
3 497 498 519
3 519 498 520
3 498 499 520
3 520 499 521
3 499 522 521
3 499 500 522
3 500 523 522
3 500 501 523
3 501 524 523
3 501 502 524
3 502 503 524
3 524 503 525
3 503 526 525
3 503 504 526
3 504 527 526
3 504 505 527
3 505 528 527
3 505 506 528
3 506 529 528
3 506 507 529
3 507 530 529
3 507 508 530
3 508 531 530
3 508 509 531
3 509 532 531
3 509 510 532
3 510 533 532
3 510 511 533
3 511 512 533
3 533 512 534
3 512 513 534
3 534 513 535
3 513 536 535
3 514 537 538
3 514 515 537
3 515 539 537
3 515 516 539
3 516 540 539
3 516 517 540
3 517 518 540
3 540 518 541
3 518 519 541
3 541 519 542
3 519 543 542
3 519 520 543
3 520 544 543
3 520 521 544
3 521 545 544
3 521 522 545
3 522 546 545
3 522 523 546
3 523 547 546
3 523 524 547
3 524 548 547
3 524 525 548
3 525 549 548
3 525 526 549
3 526 550 549
3 526 527 550
3 527 551 550
3 527 528 551
3 528 552 551
3 528 529 552
3 529 553 552
3 529 530 553
3 530 554 553
3 530 531 554
3 531 555 554
3 531 532 555
3 532 556 555
3 532 533 556
3 533 557 556
3 533 534 557
3 534 558 557
3 534 535 558
3 535 559 558
3 535 560 559
3 538 537 561
3 537 562 561
3 537 539 562
3 539 563 562
3 539 540 563
CELL_DATA 1028
SCALARS brightness_temperature float
LOOKUP_TABLE default
POINT_DATA 564
CELL_DATA 1028
SCALARS emission_angle float
LOOKUP_TABLE default
POINT_DATA 564
CELL_DATA 1028
SCALARS incidence_angle float
LOOKUP_TABLE default
POINT_DATA 564
CELL_DATA 1028
SCALARS phase_angle float
LOOKUP_TABLE default
POINT_DATA 564
CELL_DATA 1028
SCALARS local_solar_time float
LOOKUP_TABLE default
POINT_DATA 564
CELL_DATA 1028
SCALARS local_solar_time_normal_vector float
LOOKUP_TABLE default
CELL_DATA 1028
SCALARS pixel_x float
LOOKUP_TABLE default
POINT_DATA 564
CELL_DATA 1028
SCALARS pixel_y float
LOOKUP_TABLE default
POINT_DATA 564
CELL_DATA 1028
SCALARS longitude float
LOOKUP_TABLE default
POINT_DATA 564
CELL_DATA 1028
SCALARS latitude float
LOOKUP_TABLE default
