# vtk DataFile Version 3.0
SHAPE_sfm_50k_v20200323
ASCII
DATASET POLYDATA
POINTS 1079 float
-0.25282 -0.1775 0.25975
-0.25453 -0.17835 0.25846
-0.25235 -0.17928 0.25904
-0.25406 -0.18015 0.25789
-0.25192 -0.18111 0.25851
-0.25359 -0.18195 0.25731
-0.25143 -0.18291 0.25786
-0.2531 -0.1838 0.25678
-0.25103 -0.18485 0.2575
-0.25277 -0.18574 0.25647
-0.25079 -0.18681 0.25732
-0.25248 -0.18767 0.2563
-0.25055 -0.18875 0.25722
-0.25219 -0.18958 0.25611
-0.25035 -0.19069 0.25714
-0.25186 -0.19152 0.25602
-0.25058 -0.17817 0.26049
-0.25011 -0.17995 0.25978
-0.2519 -0.22657 0.24878
-0.25339 -0.22794 0.24732
-0.25165 -0.22907 0.24799
-0.25307 -0.23055 0.24658
-0.25488 -0.22946 0.24601
-0.25447 -0.23189 0.245
-0.25639 -0.23085 0.24461
-0.25591 -0.23329 0.24351
-0.2578 -0.23219 0.24307
-0.25729 -0.23454 0.24187
-0.25917 -0.23339 0.24138
-0.2585 -0.2359 0.24014
-0.26042 -0.23476 0.23968
-0.25995 -0.23729 0.23863
-0.26193 -0.23619 0.23827
-0.26147 -0.23876 0.23727
-0.26345 -0.23765 0.23694
-0.26303 -0.24015 0.23592
-0.26496 -0.23898 0.23549
-0.26436 -0.24153 0.23433
-0.26622 -0.24029 0.2338
-0.26569 -0.24279 0.23264
-0.26744 -0.24143 0.23196
-0.26694 -0.24401 0.23085
-0.26871 -0.24265 0.23018
-0.26823 -0.24518 0.22905
-0.27004 -0.24382 0.22842
-0.26945 -0.24665 0.22744
-0.2712 -0.24523 0.22672
-0.27057 -0.24789 0.22559
-0.27238 -0.2465 0.22494
-0.27164 -0.24914 0.22368
-0.27336 -0.24764 0.22294
-0.2732 -0.25048 0.22223
-0.27459 -0.24884 0.22112
-0.27447 -0.25176 0.2205
-0.27561 -0.25003 0.21917
-0.25112 -0.23142 0.24716
-0.25253 -0.23281 0.24561
-0.25397 -0.23425 0.24416
-0.25539 -0.23556 0.24258
-0.25658 -0.23693 0.24086
-0.25795 -0.23826 0.23921
-0.25946 -0.23973 0.23782
-0.26105 -0.24115 0.23651
-0.26241 -0.24256 0.23496
-0.26381 -0.2439 0.23336
-0.26513 -0.24521 0.2317
-0.26646 -0.24643 0.22995
-0.26764 -0.2479 0.22831
-0.26877 -0.24918 0.22648
-0.26987 -0.25047 0.22461
-0.27137 -0.25181 0.2231
-0.25063 -0.23376 0.24628
-0.25204 -0.23522 0.24479
-0.25352 -0.23662 0.24334
-0.25474 -0.23803 0.24168
-0.25602 -0.23929 0.2399
-0.25746 -0.2407 0.23837
-0.25904 -0.24213 0.23702
-0.26042 -0.24357 0.2355
-0.26183 -0.24494 0.23394
-0.26327 -0.24637 0.23246
-0.26467 -0.24767 0.23083
-0.26577 -0.24911 0.22909
-0.26693 -0.25045 0.2273
-0.26828 -0.25189 0.22575
-0.25014 -0.23609 0.24559
-0.25167 -0.23755 0.24424
-0.25292 -0.23901 0.24264
-0.2541 -0.24022 0.24075
-0.25545 -0.24159 0.23909
-0.25696 -0.24296 0.23758
-0.25841 -0.24448 0.2362
-0.25985 -0.2459 0.23468
-0.26135 -0.24739 0.2333
-0.26283 -0.24877 0.23178
-0.26382 -0.25014 0.22991
-0.265 -0.25154 0.22817
-0.24977 -0.23856 0.24489
-0.25109 -0.2401 0.2434
-0.25232 -0.24138 0.24159
-0.25366 -0.24276 0.23994
-0.25509 -0.24409 0.23832
-0.25654 -0.24562 0.23691
-0.25797 -0.24704 0.23539
-0.25935 -0.24845 0.23382
-0.26076 -0.2498 0.23222
-0.26185 -0.2513 0.23051
-0.24903 -0.24086 0.24404
-0.25044 -0.24228 0.2425
-0.25176 -0.24365 0.24083
-0.25321 -0.24501 0.23924
-0.25466 -0.24655 0.23783
-0.25605 -0.24797 0.23626
-0.25739 -0.2494 0.23467
-0.25862 -0.25059 0.23279
-0.24845 -0.24309 0.24329
-0.2498 -0.24449 0.24166
-0.25127 -0.24588 0.24011
-0.2526 -0.24734 0.23851
-0.254 -0.24878 0.23697
-0.25537 -0.25026 0.23543
-0.24784 -0.24514 0.24269
-0.2493 -0.24652 0.24113
-0.25063 -0.24798 0.23953
-0.25192 -0.24934 0.23781
-0.25325 -0.25081 0.23621
-0.24877 -0.24886 0.24056
-0.24993 -0.25014 0.23868
-0.31376 -0.1891 0.22574
-0.31451 -0.187 0.22286
-0.31421 -0.18918 0.22288
-0.31501 -0.18741 0.22015
-0.31453 -0.18957 0.22012
-0.30684 -0.1876 0.22979
-0.30962 -0.18667 0.22868
-0.30892 -0.18875 0.22841
-0.31189 -0.18806 0.22771
-0.31089 -0.18998 0.22693
-0.31227 -0.19062 0.22464
-0.31331 -0.19109 0.22219
-0.31416 -0.19168 0.21963
-0.30255 -0.18705 0.23296
-0.30495 -0.18632 0.23133
-0.30443 -0.18845 0.23157
-0.30619 -0.18972 0.22994
-0.30798 -0.19074 0.22817
-0.30944 -0.19152 0.22601
-0.3109 -0.19225 0.22386
-0.31228 -0.19298 0.22166
-0.31324 -0.19365 0.21917
-0.29764 -0.18633 0.23532
-0.30055 -0.18574 0.23427
-0.2997 -0.18771 0.23418
-0.30183 -0.18909 0.23319
-0.30398 -0.1905 0.23225
-0.30579 -0.19178 0.23067
-0.30697 -0.19271 0.2284
-0.30824 -0.19345 0.2261
-0.30968 -0.19417 0.22391
-0.31096 -0.19481 0.22161
-0.31208 -0.19557 0.21925
-0.31335 -0.19636 0.21695
-0.29076 -0.18476 0.23887
-0.2934 -0.18396 0.23782
-0.29277 -0.18597 0.2375
-0.29548 -0.18512 0.23647
-0.29486 -0.18715 0.23621
-0.297 -0.18835 0.23499
-0.2991 -0.18977 0.23397
-0.30131 -0.19119 0.23323
-0.30352 -0.19264 0.23255
-0.30536 -0.19394 0.23097
-0.30629 -0.19479 0.22852
-0.30727 -0.19545 0.22606
-0.30863 -0.19615 0.22381
-0.30986 -0.19677 0.22147
-0.31102 -0.19756 0.21914
-0.31227 -0.19834 0.21685
-0.27919 -0.18211 0.24454
-0.28176 -0.18168 0.24389
-0.28116 -0.18361 0.24341
-0.28411 -0.18245 0.2428
-0.28357 -0.18441 0.24249
-0.28603 -0.18508 0.24161
-0.28649 -0.18306 0.24168
-0.28826 -0.18571 0.24025
-0.28871 -0.18367 0.24027
-0.2902 -0.18679 0.23871
-0.29221 -0.18802 0.23735
-0.29426 -0.18919 0.236
-0.29632 -0.19036 0.23465
-0.29844 -0.19179 0.2337
-0.30062 -0.1932 0.23293
-0.30273 -0.19464 0.23201
-0.30451 -0.19592 0.23038
-0.3055 -0.19673 0.22796
-0.30653 -0.19745 0.22557
-0.30781 -0.19814 0.22327
-0.30904 -0.19879 0.22095
-0.31025 -0.19962 0.21867
-0.31143 -0.20037 0.21635
-0.27701 -0.18219 0.24525
-0.2786 -0.18406 0.24412
-0.28055 -0.18557 0.243
-0.28292 -0.18633 0.24197
-0.28537 -0.18698 0.24107
-0.2877 -0.1877 0.23996
-0.28967 -0.18882 0.2385
-0.29163 -0.19005 0.23711
-0.29362 -0.19121 0.2357
-0.29564 -0.19236 0.23432
-0.29767 -0.19372 0.23314
-0.29977 -0.19497 0.23202
-0.30176 -0.19614 0.23067
-0.30339 -0.19731 0.22895
-0.30459 -0.19846 0.22689
-0.30588 -0.1994 0.22475
-0.30711 -0.20008 0.22246
-0.30834 -0.20075 0.22014
-0.30958 -0.20162 0.2179
-0.31073 -0.20239 0.21558
-0.27327 -0.18068 0.24755
-0.27544 -0.1803 0.24647
-0.27498 -0.18231 0.24621
-0.2765 -0.18418 0.24496
-0.27804 -0.18604 0.24375
-0.27997 -0.18756 0.24261
-0.28232 -0.18832 0.24155
-0.2847 -0.18892 0.24048
-0.28702 -0.18962 0.23934
-0.28908 -0.19082 0.23813
-0.29101 -0.19204 0.23671
-0.293 -0.19322 0.23533
-0.29501 -0.19439 0.23398
-0.29693 -0.19568 0.23261
-0.2989 -0.19681 0.23117
-0.30081 -0.19791 0.22965
-0.30251 -0.19919 0.22809
-0.30385 -0.20047 0.22621
-0.30504 -0.20134 0.22401
-0.30629 -0.20204 0.22173
-0.30759 -0.20277 0.21949
-0.3088 -0.20364 0.21724
-0.31003 -0.20448 0.21497
-0.27109 -0.18115 0.24865
-0.27283 -0.18265 0.2472
-0.27456 -0.18429 0.24593
-0.27601 -0.18615 0.2446
-0.27753 -0.18807 0.24342
-0.27949 -0.18962 0.24237
-0.28184 -0.19038 0.24133
-0.28422 -0.19099 0.24027
-0.28651 -0.19168 0.2391
-0.28853 -0.19285 0.2378
-0.29046 -0.19411 0.23643
-0.29241 -0.19528 0.23502
-0.29442 -0.19644 0.23367
-0.29623 -0.19769 0.23214
-0.29813 -0.1988 0.23059
-0.30011 -0.2 0.22923
-0.30188 -0.20131 0.22776
-0.30314 -0.20251 0.22577
-0.3043 -0.20339 0.22354
-0.30552 -0.2041 0.22126
-0.30685 -0.20486 0.21904
-0.308 -0.20573 0.21677
-0.30939 -0.20665 0.21464
-0.31144 -0.20539 0.21282
-0.31086 -0.20758 0.21256
-0.2671 -0.1806 0.2515
-0.2694 -0.17992 0.25036
-0.26887 -0.1818 0.24989
-0.27064 -0.18311 0.24831
-0.2724 -0.18463 0.24694
-0.27404 -0.18625 0.24557
-0.27549 -0.18819 0.24431
-0.2771 -0.19016 0.24334
-0.27905 -0.1917 0.24232
-0.28139 -0.19245 0.24123
-0.28377 -0.19304 0.24018
-0.28602 -0.19372 0.23892
-0.28806 -0.19491 0.23764
-0.29011 -0.19622 0.23655
-0.29192 -0.19737 0.23498
-0.29374 -0.19845 0.23333
-0.29554 -0.19971 0.23178
-0.29748 -0.20088 0.23033
-0.29938 -0.20202 0.22886
-0.30107 -0.20327 0.22725
-0.30224 -0.20441 0.22516
-0.30344 -0.20537 0.22299
-0.30478 -0.20619 0.22082
-0.30613 -0.20697 0.21864
-0.30741 -0.20791 0.21648
-0.3088 -0.20884 0.21437
-0.31016 -0.20973 0.21219
-0.26299 -0.18 0.25409
-0.26523 -0.17943 0.25302
-0.26472 -0.18127 0.25251
-0.26653 -0.18243 0.25092
-0.26834 -0.18367 0.24936
-0.27015 -0.18502 0.24788
-0.2719 -0.18658 0.24656
-0.27356 -0.18828 0.24529
-0.27514 -0.19028 0.24431
-0.27679 -0.19225 0.2435
-0.27871 -0.1938 0.24248
-0.28098 -0.19452 0.24128
-0.28325 -0.19506 0.23999
-0.28546 -0.1957 0.23863
-0.28753 -0.19692 0.2374
-0.28959 -0.19824 0.23634
-0.29141 -0.19941 0.23484
-0.29305 -0.20046 0.23299
-0.29489 -0.20176 0.2315
-0.29683 -0.20293 0.23009
-0.29863 -0.20402 0.22848
-0.3001 -0.20511 0.22656
-0.30125 -0.2063 0.22446
-0.30276 -0.20748 0.22259
-0.30422 -0.20836 0.22056
-0.30555 -0.20914 0.21839
-0.30693 -0.21012 0.2163
-0.30822 -0.21104 0.21414
-0.30963 -0.21198 0.21204
-0.25866 -0.17908 0.25619
-0.26113 -0.17873 0.25553
-0.26046 -0.18042 0.25474
-0.26234 -0.18172 0.25336
-0.26409 -0.18304 0.25185
-0.26593 -0.18427 0.25035
-0.26774 -0.18555 0.24882
-0.26961 -0.18697 0.24747
-0.27143 -0.1886 0.24633
-0.27318 -0.19035 0.24527
-0.27482 -0.19237 0.24447
-0.27651 -0.19434 0.2438
-0.27841 -0.19588 0.24283
-0.28049 -0.19656 0.24134
-0.28261 -0.19704 0.23977
-0.28477 -0.19766 0.23828
-0.28682 -0.19886 0.23699
-0.28885 -0.20014 0.23585
-0.29068 -0.20133 0.23437
-0.29244 -0.20248 0.23272
-0.29423 -0.20377 0.23122
-0.29607 -0.20489 0.22965
-0.29774 -0.20593 0.22789
-0.2992 -0.20707 0.22597
-0.3006 -0.20845 0.22415
-0.30219 -0.20962 0.22238
-0.30371 -0.21052 0.2204
-0.305 -0.2113 0.21819
-0.30642 -0.21231 0.21615
-0.30779 -0.21327 0.21406
-0.30931 -0.21426 0.21208
-0.25682 -0.17782 0.25767
-0.25631 -0.17961 0.25704
-0.25811 -0.18085 0.25548
-0.25991 -0.18221 0.25402
-0.26181 -0.18354 0.25267
-0.26356 -0.18491 0.25122
-0.26545 -0.18618 0.2498
-0.26731 -0.18753 0.24839
-0.26929 -0.18902 0.24728
-0.27113 -0.19068 0.24623
-0.27297 -0.19246 0.24539
-0.27471 -0.19447 0.24486
-0.2765 -0.19641 0.24439
-0.27837 -0.19794 0.2434
-0.28008 -0.19867 0.24155
-0.28193 -0.19907 0.23959
-0.28413 -0.19968 0.23809
-0.28618 -0.20087 0.23683
-0.288 -0.20198 0.23524
-0.28985 -0.20317 0.23373
-0.29171 -0.20441 0.23228
-0.29349 -0.20573 0.2308
-0.29521 -0.20677 0.22906
-0.29696 -0.20792 0.22739
-0.29857 -0.20918 0.22567
-0.30009 -0.21061 0.22404
-0.30149 -0.2117 0.22208
-0.30289 -0.21256 0.21999
-0.30435 -0.21343 0.21792
-0.30589 -0.2145 0.21601
[...]
CELL_DATA 2022
SCALARS brightness_temperature float
LOOKUP_TABLE default
POINT_DATA 1079
CELL_DATA 2022
SCALARS emission_angle float
LOOKUP_TABLE default
POINT_DATA 1079
CELL_DATA 2022
SCALARS incidence_angle float
LOOKUP_TABLE default
POINT_DATA 1079
CELL_DATA 2022
SCALARS phase_angle float
LOOKUP_TABLE default
POINT_DATA 1079
CELL_DATA 2022
SCALARS local_solar_time float
LOOKUP_TABLE default
POINT_DATA 1079
CELL_DATA 2022
SCALARS local_solar_time_normal_vector float
LOOKUP_TABLE default
CELL_DATA 2022
SCALARS pixel_x float
LOOKUP_TABLE default
POINT_DATA 1079
CELL_DATA 2022
SCALARS pixel_y float
LOOKUP_TABLE default
POINT_DATA 1079
CELL_DATA 2022
SCALARS longitude float
LOOKUP_TABLE default
POINT_DATA 1079
CELL_DATA 2022
SCALARS latitude float
LOOKUP_TABLE default
