# vtk DataFile Version 3.0
SHAPE_sfm_50k_v20200323
ASCII
DATASET POLYDATA
POINTS 679 float
0.22478 -0.35427 -0.14893
0.22614 -0.35153 -0.15099
0.2273 -0.35301 -0.14888
0.22354 -0.35265 -0.15089
0.22493 -0.34957 -0.15261
0.22234 -0.35068 -0.15252
0.22134 -0.34872 -0.1543
0.22391 -0.34758 -0.15433
0.22036 -0.3468 -0.15613
0.22294 -0.34571 -0.1562
0.21931 -0.34484 -0.15786
0.22194 -0.34391 -0.15812
0.23642 -0.36202 -0.13739
0.23273 -0.3613 -0.13904
0.23545 -0.3604 -0.13947
0.23189 -0.35943 -0.14097
0.23461 -0.35857 -0.14142
0.23111 -0.35761 -0.14297
0.23382 -0.35676 -0.1434
0.23005 -0.3561 -0.14509
0.2327 -0.35509 -0.14533
0.23117 -0.35327 -0.14685
0.22863 -0.35453 -0.14692
0.22984 -0.35174 -0.14882
0.22863 -0.35018 -0.15079
0.22747 -0.34834 -0.15256
0.22646 -0.3464 -0.15433
0.22546 -0.3445 -0.15615
0.22446 -0.3427 -0.15805
0.24204 -0.36699 -0.1288
0.23901 -0.36684 -0.13104
0.24152 -0.3653 -0.13097
0.23831 -0.36496 -0.133
0.24094 -0.36364 -0.13315
0.23749 -0.36356 -0.1353
0.24005 -0.36215 -0.13535
0.23907 -0.36088 -0.13763
0.23812 -0.35932 -0.13974
0.23732 -0.35771 -0.14188
0.2365 -0.35583 -0.14377
0.23527 -0.35383 -0.14528
0.23375 -0.35204 -0.14685
0.23253 -0.3508 -0.1491
0.2312 -0.34901 -0.1508
0.23004 -0.34716 -0.15254
0.22904 -0.34528 -0.15436
0.22806 -0.34344 -0.15623
0.22708 -0.34174 -0.15824
0.24798 -0.37279 -0.11779
0.24511 -0.37282 -0.11988
0.24767 -0.37134 -0.12015
0.24474 -0.37141 -0.12226
0.24725 -0.36987 -0.12248
0.24388 -0.37017 -0.12462
0.24636 -0.36855 -0.12475
0.24271 -0.36859 -0.12661
0.24526 -0.36712 -0.12686
0.24456 -0.36545 -0.12897
0.24404 -0.36379 -0.13117
0.24352 -0.36227 -0.13345
0.24268 -0.36096 -0.13577
0.24168 -0.35968 -0.13802
0.24077 -0.3583 -0.14027
0.23996 -0.35671 -0.14241
0.23912 -0.35477 -0.14421
0.23787 -0.35267 -0.14559
0.23637 -0.35091 -0.14718
0.23499 -0.34936 -0.14905
0.23371 -0.34772 -0.15091
0.2326 -0.34602 -0.15281
0.23156 -0.34405 -0.15451
0.23064 -0.34241 -0.15659
0.22965 -0.34068 -0.15854
0.25193 -0.37681 -0.10838
0.25298 -0.37436 -0.11087
0.25438 -0.37502 -0.10859
0.2506 -0.37627 -0.11076
0.25175 -0.3734 -0.11315
0.24936 -0.37525 -0.11304
0.25079 -0.37223 -0.11547
0.24849 -0.37417 -0.11544
0.25039 -0.37104 -0.11794
0.25009 -0.36964 -0.12031
0.24969 -0.36821 -0.12265
0.24888 -0.36705 -0.12503
0.24787 -0.36579 -0.12726
0.24716 -0.36407 -0.12933
0.24676 -0.36281 -0.13179
0.24623 -0.3613 -0.13405
0.2453 -0.35976 -0.13617
0.24428 -0.35847 -0.13841
0.24332 -0.35697 -0.14053
0.24252 -0.35539 -0.14263
0.2417 -0.35358 -0.14453
0.24049 -0.3517 -0.14616
0.239 -0.35 -0.14776
0.23757 -0.34821 -0.14933
0.23624 -0.34645 -0.15103
0.23507 -0.34468 -0.15283
0.2341 -0.3429 -0.15473
0.23313 -0.34115 -0.15666
0.23214 -0.33943 -0.1586
0.22852 -0.33876 -0.16022
0.23108 -0.33772 -0.16051
0.25531 -0.37245 -0.11125
0.25682 -0.37325 -0.10909
0.25405 -0.37146 -0.11349
0.25309 -0.37032 -0.11581
0.25255 -0.36897 -0.11816
0.25233 -0.36771 -0.12061
0.25207 -0.36649 -0.12308
0.25136 -0.36552 -0.12557
0.25036 -0.36435 -0.12787
0.24975 -0.36293 -0.13017
0.24938 -0.36182 -0.13267
0.24881 -0.3602 -0.13484
0.24788 -0.35865 -0.13694
0.24686 -0.35737 -0.13917
0.24588 -0.35583 -0.14125
0.24512 -0.35441 -0.14353
0.2442 -0.35233 -0.14513
0.24292 -0.35032 -0.14654
0.24145 -0.34866 -0.1482
0.24004 -0.34695 -0.14985
0.2387 -0.34512 -0.15144
0.23752 -0.34329 -0.15316
0.23654 -0.34154 -0.15508
0.23558 -0.33984 -0.15706
0.23461 -0.33818 -0.15904
0.23355 -0.33647 -0.16095
0.25763 -0.37049 -0.11134
0.25912 -0.37125 -0.10916
0.25638 -0.36954 -0.11359
0.2554 -0.36839 -0.11589
0.25484 -0.36705 -0.11823
0.25458 -0.36574 -0.12065
0.25428 -0.3645 -0.12311
0.25365 -0.36365 -0.12565
0.25289 -0.36285 -0.12818
0.25258 -0.36203 -0.13083
0.25213 -0.36062 -0.13325
0.2513 -0.35865 -0.13506
0.25036 -0.35713 -0.13715
0.2494 -0.35596 -0.13946
0.24863 -0.35483 -0.14193
0.24757 -0.35283 -0.14363
0.24647 -0.35061 -0.14489
0.2453 -0.34879 -0.14663
0.24391 -0.3473 -0.14847
0.2425 -0.3456 -0.15012
0.24119 -0.34385 -0.15181
0.24003 -0.34208 -0.15359
0.23905 -0.34034 -0.1555
0.23808 -0.33865 -0.15748
0.23716 -0.33721 -0.15965
0.23609 -0.33547 -0.16153
0.26016 -0.36888 -0.11087
0.26165 -0.36962 -0.10871
0.25892 -0.36797 -0.11313
0.25792 -0.36682 -0.11543
0.25734 -0.36546 -0.11777
0.25713 -0.36427 -0.12026
0.25691 -0.36316 -0.12275
0.25611 -0.36209 -0.12515
0.25533 -0.36129 -0.12767
0.25472 -0.36005 -0.13005
0.25395 -0.35841 -0.13212
0.25332 -0.35671 -0.13419
0.25258 -0.35538 -0.13647
0.25163 -0.35423 -0.13879
0.25071 -0.35288 -0.14101
0.24961 -0.35099 -0.14269
0.24875 -0.34901 -0.14439
0.24778 -0.34744 -0.14643
0.24645 -0.34607 -0.14839
0.24508 -0.34446 -0.15013
0.24381 -0.3428 -0.15192
0.24267 -0.34116 -0.15382
0.24168 -0.33941 -0.1557
0.24071 -0.33775 -0.1577
0.23979 -0.33638 -0.15991
0.23874 -0.33479 -0.16191
0.26273 -0.36752 -0.11
0.26146 -0.36661 -0.11224
0.26054 -0.36561 -0.11462
0.25997 -0.36431 -0.11697
0.25966 -0.363 -0.11936
0.25942 -0.36188 -0.12184
0.25864 -0.36088 -0.12426
0.25777 -0.35997 -0.12668
0.25703 -0.35862 -0.12894
0.25619 -0.35695 -0.13093
0.25543 -0.35517 -0.13289
0.25466 -0.35385 -0.13517
0.2537 -0.35272 -0.13747
0.25273 -0.35137 -0.13963
0.25177 -0.34959 -0.14148
0.25106 -0.34774 -0.14337
0.25015 -0.34626 -0.14549
0.24909 -0.34524 -0.14779
0.24782 -0.34387 -0.14979
0.24656 -0.3423 -0.15165
0.24541 -0.34067 -0.15353
0.24442 -0.33896 -0.15542
0.24344 -0.33729 -0.15737
0.24246 -0.33574 -0.15942
0.24144 -0.33438 -0.16158
0.26425 -0.36827 -0.10786
0.26543 -0.36615 -0.10981
0.26405 -0.36508 -0.1119
0.26301 -0.36397 -0.11418
0.26245 -0.36272 -0.11654
0.26212 -0.36142 -0.11893
0.26193 -0.36039 -0.12145
0.26121 -0.35948 -0.12392
0.26021 -0.35842 -0.12623
0.25918 -0.3568 -0.12818
0.25826 -0.35508 -0.13009
0.25755 -0.35335 -0.1321
0.25666 -0.35197 -0.13428
0.2556 -0.35079 -0.13649
0.25453 -0.3494 -0.13857
0.2537 -0.34771 -0.14054
0.25302 -0.34589 -0.14247
0.25218 -0.34449 -0.14467
0.25116 -0.34352 -0.14701
0.25021 -0.3425 -0.14935
0.24908 -0.34115 -0.15143
0.24801 -0.33969 -0.15348
0.24707 -0.33814 -0.15552
0.24613 -0.33662 -0.15758
0.2451 -0.33491 -0.15945
0.24399 -0.33334 -0.16141
0.24294 -0.33194 -0.16351
0.26679 -0.36378 -0.11193
0.26831 -0.36523 -0.11022
0.26554 -0.36236 -0.11392
0.26483 -0.36094 -0.11616
0.26452 -0.35969 -0.11857
0.26436 -0.35873 -0.12112
0.26363 -0.35782 -0.12357
0.26242 -0.35655 -0.12564
0.26124 -0.35483 -0.12739
0.26027 -0.35307 -0.12927
0.25962 -0.35141 -0.13134
0.25869 -0.35004 -0.13349
0.25759 -0.34885 -0.13567
0.25648 -0.34743 -0.13771
0.25571 -0.34578 -0.13974
0.25504 -0.34399 -0.14169
0.25421 -0.34263 -0.14389
0.25304 -0.34158 -0.14612
0.2522 -0.34067 -0.14856
0.25138 -0.33963 -0.15094
0.25043 -0.33833 -0.15313
0.24963 -0.33705 -0.15539
0.24871 -0.33555 -0.15745
0.24773 -0.334 -0.15945
0.24661 -0.33235 -0.16131
0.24553 -0.3309 -0.16336
0.26961 -0.3627 -0.11171
0.27125 -0.36444 -0.11042
0.26821 -0.36105 -0.11341
0.26741 -0.35953 -0.11555
0.267 -0.35816 -0.1179
0.26693 -0.35738 -0.12053
0.26618 -0.35645 -0.12298
0.26486 -0.35505 -0.12493
0.26373 -0.35335 -0.12673
0.26278 -0.35163 -0.1286
0.262 -0.34988 -0.13052
0.26086 -0.34836 -0.13246
0.25955 -0.34705 -0.13446
0.25855 -0.3457 -0.13662
0.25787 -0.34413 -0.13874
0.2573 -0.34245 -0.14078
0.25645 -0.34108 -0.14295
0.25527 -0.34003 -0.14516
0.25423 -0.33898 -0.14747
0.25354 -0.33809 -0.14997
0.25287 -0.33714 -0.15242
0.25216 -0.33601 -0.15478
0.25134 -0.33474 -0.15701
0.25044 -0.33338 -0.15916
0.24937 -0.3319 -0.16116
0.24824 -0.33029 -0.16305
0.24733 -0.32895 -0.16524
0.27238 -0.3615 -0.11162
0.27097 -0.35984 -0.11322
0.27007 -0.35819 -0.1152
0.26968 -0.35687 -0.11757
0.26943 -0.35584 -0.12007
0.26857 -0.3548 -0.12241
0.26728 -0.35345 -0.12437
0.26622 -0.35185 -0.12628
0.26525 -0.35012 -0.12812
0.26434 -0.34826 -0.12986
0.26314 -0.34666 -0.13171
0.26188 -0.34538 -0.13376
0.26079 -0.344 -0.13585
0.2602 -0.34257 -0.13809
0.25971 -0.34099 -0.14023
0.25906 -0.33987 -0.14262
0.25774 -0.33866 -0.14465
0.25651 -0.33741 -0.14676
0.2557 -0.33642 -0.1492
0.2552 -0.3357 -0.15179
0.25466 -0.33485 -0.1543
0.25391 -0.33373 -0.15663
0.25311 -0.33264 -0.15896
0.25208 -0.33131 -0.16106
0.25096 -0.32978 -0.163
0.25001 -0.32835 -0.16511
0.27348 -0.35821 -0.11327
0.27485 -0.35975 -0.11153
0.27266 -0.3567 -0.11536
0.27224 -0.35538 -0.11769
0.27183 -0.35411 -0.12004
0.27081 -0.35288 -0.12221
0.26949 -0.35151 -0.12411
0.2684 -0.34988 -0.12597
0.26743 -0.34817 -0.1278
0.26655 -0.34633 -0.12957
0.26542 -0.34481 -0.13154
0.26418 -0.34358 -0.13361
0.26305 -0.34216 -0.13562
0.2623 -0.34058 -0.13771
0.26185 -0.33907 -0.13991
0.26105 -0.33782 -0.14216
0.25997 -0.33692 -0.14446
0.25881 -0.33571 -0.14661
0.25799 -0.33473 -0.14904
0.25744 -0.33402 -0.15162
0.25695 -0.33326 -0.15416
0.2564 -0.3325 -0.15669
0.25558 -0.3314 -0.15901
0.25459 -0.33018 -0.16118
0.2535 -0.32876 -0.1632
0.25256 -0.32736 -0.16531
0.27597 -0.35651 -0.11335
0.2771 -0.35774 -0.11124
0.27519 -0.35511 -0.11552
0.27476 -0.35379 -0.11783
0.27426 -0.35242 -0.12009
0.27315 -0.35106 -0.12213
0.27187 -0.34974 -0.12407
0.2708 -0.34814 -0.12596
0.26984 -0.34646 -0.12783
0.26901 -0.3447 -0.1297
0.26786 -0.34315 -0.13161
0.26663 -0.34197 -0.13369
0.2655 -0.34051 -0.13567
0.26482 -0.33902 -0.13783
0.26434 -0.33754 -0.14001
0.2634 -0.33615 -0.14212
0.26215 -0.33504 -0.14426
0.26123 -0.3342 -0.14668
0.26042 -0.33325 -0.14908
0.25968 -0.33229 -0.15152
0.25915 -0.3315 -0.15405
0.25862 -0.33079 -0.15659
0.25786 -0.32982 -0.15897
0.25698 -0.32879 -0.16128
0.25592 -0.32744 -0.16334
0.25499 -0.32611 -0.16549
0.27854 -0.355 -0.11296
0.27939 -0.35588 -0.11057
0.27791 -0.35387 -0.11533
0.27747 -0.35256 -0.11764
0.277 -0.35127 -0.11995
0.2759 -0.34994 -0.12202
0.27459 -0.34857 -0.12391
0.27342 -0.34682 -0.12562
0.27248 -0.34518 -0.12755
0.2717 -0.34354 -0.12955
0.27061 -0.34212 -0.13156
0.26937 -0.34095 -0.13365
0.26833 -0.33971 -0.13581
0.26766 -0.33835 -0.13803
0.26706 -0.33659 -0.13997
0.26604 -0.33497 -0.14189
0.26481 -0.33392 -0.14407
0.26379 -0.33297 -0.1464
0.26294 -0.33197 -0.14876
0.2622 -0.331 -0.15118
[...]
CELL_DATA 1248
SCALARS brightness_temperature float
LOOKUP_TABLE default
POINT_DATA 679
CELL_DATA 1248
SCALARS emission_angle float
LOOKUP_TABLE default
POINT_DATA 679
CELL_DATA 1248
SCALARS incidence_angle float
LOOKUP_TABLE default
POINT_DATA 679
CELL_DATA 1248
SCALARS phase_angle float
LOOKUP_TABLE default
POINT_DATA 679
CELL_DATA 1248
SCALARS local_solar_time float
LOOKUP_TABLE default
POINT_DATA 679
CELL_DATA 1248
SCALARS local_solar_time_normal_vector float
LOOKUP_TABLE default
CELL_DATA 1248
SCALARS pixel_x float
LOOKUP_TABLE default
POINT_DATA 679
CELL_DATA 1248
SCALARS pixel_y float
LOOKUP_TABLE default
POINT_DATA 679
CELL_DATA 1248
SCALARS longitude float
LOOKUP_TABLE default
POINT_DATA 679
CELL_DATA 1248
SCALARS latitude float
LOOKUP_TABLE default
