# vtk DataFile Version 3.0
SHAPE_sfm_50k_v20200323
ASCII
DATASET POLYDATA
POINTS 2825 float
-0.40982 0.07928 -0.12159
-0.40861 0.08122 -0.12425
-0.40918 0.07866 -0.12435
-0.40807 0.08104 -0.12712
-0.40853 0.07843 -0.12718
-0.4073 0.0789 -0.12977
-0.40675 0.08146 -0.1297
-0.40573 0.07985 -0.13202
-0.40523 0.08241 -0.13199
-0.40444 0.08056 -0.13452
-0.41238 0.07871 -0.11682
-0.41059 0.08015 -0.11894
-0.41134 0.07766 -0.11932
-0.41072 0.07687 -0.12204
-0.41 0.07621 -0.12478
-0.40918 0.07594 -0.12757
-0.40781 0.07637 -0.1301
-0.40647 0.07741 -0.13246
-0.40489 0.07805 -0.13482
-0.41627 0.07754 -0.10907
-0.41447 0.07964 -0.11146
-0.41523 0.07714 -0.11176
-0.41375 0.07946 -0.11432
-0.41416 0.07683 -0.11446
-0.41315 0.07623 -0.11713
-0.41245 0.07534 -0.11981
-0.41212 0.07472 -0.12267
-0.41086 0.07377 -0.12516
-0.40964 0.07337 -0.12778
-0.40835 0.07384 -0.13034
-0.407 0.07488 -0.1327
-0.4057 0.07563 -0.13518
-0.4205 0.07661 -0.10153
-0.41857 0.07845 -0.10381
-0.41928 0.07592 -0.10408
-0.41728 0.07793 -0.10637
-0.41819 0.07549 -0.10675
-0.41708 0.07507 -0.10942
-0.41604 0.07467 -0.11211
-0.41507 0.0744 -0.11486
-0.41406 0.0738 -0.11754
-0.41349 0.07297 -0.12027
-0.41309 0.07226 -0.12311
-0.41165 0.07131 -0.12551
-0.41028 0.07086 -0.12805
-0.40894 0.07132 -0.1306
-0.40756 0.07237 -0.13294
-0.40641 0.07319 -0.13549
-0.42722 0.0769 -0.09223
-0.42566 0.07418 -0.09454
-0.42745 0.07419 -0.09224
-0.42535 0.07687 -0.09445
-0.42394 0.07465 -0.09684
-0.42344 0.07729 -0.09661
-0.42241 0.07462 -0.09931
-0.42192 0.07725 -0.09908
-0.42119 0.07406 -0.10187
-0.42025 0.0735 -0.10457
-0.41929 0.07314 -0.10731
-0.41811 0.0727 -0.10996
-0.41692 0.07223 -0.11259
-0.41581 0.07192 -0.11527
-0.41481 0.07132 -0.11796
-0.41409 0.07045 -0.12064
-0.41338 0.06963 -0.12334
-0.41237 0.06884 -0.12596
-0.41097 0.06839 -0.1285
-0.40954 0.06882 -0.131
-0.4081 0.06987 -0.13331
-0.40688 0.07068 -0.13583
-0.43113 0.07284 -0.08806
-0.42924 0.0749 -0.09005
-0.4294 0.07222 -0.09033
-0.42776 0.07154 -0.09263
-0.42609 0.07156 -0.09502
-0.42446 0.07206 -0.09738
-0.42295 0.07205 -0.09984
-0.42199 0.07159 -0.10254
-0.42105 0.07103 -0.10524
-0.42001 0.07065 -0.10795
-0.41889 0.07025 -0.11062
-0.41778 0.06984 -0.1133
-0.41651 0.06947 -0.11591
-0.41542 0.06884 -0.11854
-0.4146 0.06793 -0.12118
-0.41389 0.06714 -0.12389
-0.41288 0.06633 -0.1265
-0.41184 0.06604 -0.12923
-0.41022 0.06639 -0.13164
-0.40869 0.06742 -0.1339
-0.40734 0.06821 -0.13638
-0.43625 0.07166 -0.08121
-0.43478 0.07395 -0.08361
-0.43497 0.07126 -0.08382
-0.43292 0.07344 -0.08583
-0.43328 0.07077 -0.08618
-0.43159 0.07021 -0.08851
-0.42999 0.06964 -0.09088
-0.42844 0.069 -0.09327
-0.42674 0.069 -0.09562
-0.42502 0.06948 -0.09792
-0.42361 0.06952 -0.10046
-0.42254 0.06903 -0.1031
-0.42156 0.06849 -0.1058
-0.4205 0.06811 -0.1085
-0.41941 0.06773 -0.11118
-0.41849 0.06739 -0.11394
-0.41724 0.06703 -0.11656
-0.41624 0.06644 -0.11924
-0.4155 0.06557 -0.12191
-0.41457 0.06466 -0.12452
-0.41383 0.06399 -0.12727
-0.41291 0.06382 -0.13005
-0.41134 0.06419 -0.13248
-0.40953 0.06506 -0.1346
-0.40812 0.06584 -0.13704
-0.44127 0.07139 -0.07435
-0.43944 0.07288 -0.07649
-0.43974 0.07015 -0.07653
-0.43788 0.07206 -0.07882
-0.43814 0.06934 -0.07883
-0.4367 0.06897 -0.08134
-0.43542 0.06858 -0.08395
-0.434 0.06817 -0.08649
-0.43259 0.06773 -0.08903
-0.43103 0.06717 -0.09147
-0.42938 0.06649 -0.09379
-0.42765 0.06649 -0.09613
-0.42574 0.06691 -0.09829
-0.42434 0.06696 -0.10084
-0.4232 0.06646 -0.10346
-0.42235 0.06599 -0.10621
-0.4214 0.06568 -0.10897
-0.4202 0.06525 -0.11161
-0.41925 0.06491 -0.11436
-0.41809 0.06456 -0.11703
-0.41734 0.06413 -0.11983
-0.41656 0.06321 -0.1225
-0.41602 0.06255 -0.12531
-0.41561 0.0623 -0.1282
-0.41445 0.06187 -0.13084
-0.41268 0.06206 -0.13315
-0.41074 0.06285 -0.13521
-0.40902 0.06347 -0.13749
-0.44269 0.07001 -0.07211
-0.4414 0.06863 -0.07437
-0.44008 0.06743 -0.07671
-0.43854 0.06664 -0.07905
-0.43715 0.06629 -0.08159
-0.43585 0.06591 -0.08418
-0.43449 0.06551 -0.08676
-0.43304 0.06502 -0.08928
-0.43139 0.06442 -0.09163
-0.42984 0.06379 -0.09402
-0.42822 0.06385 -0.09645
-0.4266 0.06439 -0.09882
-0.42506 0.06441 -0.10128
-0.4239 0.06394 -0.10391
-0.42306 0.06348 -0.10667
-0.42219 0.06321 -0.10945
-0.42126 0.06291 -0.11222
-0.42035 0.0626 -0.11499
-0.41962 0.06255 -0.11784
-0.41859 0.06192 -0.12053
-0.41814 0.06125 -0.12338
-0.41818 0.06138 -0.12634
-0.41779 0.06132 -0.12928
-0.41644 0.06047 -0.13179
-0.41435 0.06017 -0.13382
-0.41215 0.06073 -0.1357
-0.41014 0.06118 -0.1378
-0.4457 0.0691 -0.06782
-0.44393 0.07122 -0.06975
-0.4441 0.06847 -0.0702
-0.44278 0.06726 -0.07251
-0.44155 0.06592 -0.07485
-0.44016 0.06473 -0.07718
-0.43885 0.06399 -0.07968
-0.43747 0.06365 -0.08222
-0.43634 0.06334 -0.0849
-0.4353 0.06305 -0.08765
-0.43389 0.06259 -0.09028
-0.43192 0.06185 -0.09236
-0.43046 0.06126 -0.09482
-0.42872 0.06127 -0.09716
-0.42702 0.0618 -0.09948
-0.42565 0.06191 -0.10204
-0.42473 0.06155 -0.10479
-0.42374 0.06105 -0.10749
-0.42296 0.06083 -0.1103
-0.42257 0.06083 -0.11325
-0.42136 0.06036 -0.11593
-0.42061 0.06029 -0.11877
-0.4197 0.05978 -0.12157
-0.42014 0.0599 -0.12452
-0.42046 0.06051 -0.12746
-0.41983 0.0601 -0.13042
-0.41847 0.0593 -0.13297
-0.41629 0.05873 -0.13485
-0.41373 0.05877 -0.13629
-0.4114 0.05894 -0.1381
-0.45933 0.06465 -0.04977
-0.45742 0.06753 -0.05139
-0.45738 0.06468 -0.05198
-0.45578 0.06785 -0.05381
-0.45577 0.06502 -0.05442
-0.4543 0.06764 -0.0563
-0.45431 0.06482 -0.05692
-0.45278 0.06724 -0.05874
-0.45288 0.06445 -0.05944
-0.45122 0.06757 -0.06117
-0.45132 0.0648 -0.06187
-0.44987 0.06549 -0.06437
-0.44957 0.06822 -0.06351
-0.44767 0.06609 -0.06629
-0.4476 0.06884 -0.0656
-0.44573 0.06636 -0.06847
-0.44414 0.06575 -0.07087
-0.44292 0.06459 -0.07327
-0.44162 0.06326 -0.07559
-0.44023 0.06208 -0.07793
-0.43891 0.06135 -0.08043
-0.43775 0.06107 -0.08309
-0.43673 0.06079 -0.08584
-0.43575 0.06048 -0.08866
-0.434 0.05994 -0.09105
-0.43231 0.05934 -0.09337
-0.43075 0.05871 -0.09577
-0.42907 0.05877 -0.09815
-0.42744 0.05934 -0.10051
-0.42633 0.05957 -0.10319
-0.42529 0.05918 -0.1059
-0.42438 0.05875 -0.10864
-0.42408 0.05875 -0.11158
-0.4232 0.05851 -0.11441
-0.42197 0.05809 -0.11708
-0.42112 0.05797 -0.11991
-0.42083 0.05783 -0.12289
-0.42178 0.05821 -0.12569
-0.42239 0.05899 -0.12861
-0.42166 0.05858 -0.13162
-0.42032 0.05788 -0.13428
-0.41797 0.05708 -0.13596
-0.41522 0.05677 -0.13701
-0.41276 0.0568 -0.13869
-0.46488 0.06305 -0.04346
-0.46282 0.06509 -0.04508
-0.46312 0.06226 -0.04573
-0.46118 0.0647 -0.04748
-0.46131 0.06184 -0.04801
-0.45947 0.0618 -0.05032
-0.4577 0.06188 -0.05268
-0.45613 0.06223 -0.05514
-0.45469 0.06205 -0.05766
-0.45308 0.06167 -0.06008
-0.45127 0.06198 -0.06235
-0.44958 0.06264 -0.06467
-0.44784 0.06334 -0.06695
-0.44597 0.06365 -0.0692
-0.44434 0.06305 -0.07158
-0.44299 0.06188 -0.0739
-0.44174 0.06058 -0.07626
-0.44039 0.05943 -0.07864
-0.43925 0.05875 -0.08124
-0.43812 0.05849 -0.08393
-0.43685 0.05814 -0.08658
-0.43547 0.05776 -0.08918
-0.43418 0.05731 -0.09183
-0.43242 0.05671 -0.09413
-0.43095 0.05613 -0.0966
-0.42947 0.05627 -0.09912
-0.42801 0.05693 -0.10158
-0.42678 0.05712 -0.10422
-0.42586 0.0568 -0.10697
-0.42511 0.05646 -0.10979
-0.42435 0.05629 -0.11263
-0.42347 0.05607 -0.11544
-0.42253 0.05579 -0.11822
-0.42185 0.05575 -0.12111
-0.42186 0.05575 -0.12414
-0.42312 0.05626 -0.12682
-0.42408 0.05721 -0.12966
-0.4233 0.05681 -0.13273
-0.42178 0.05588 -0.13521
-0.41947 0.05518 -0.13692
-0.41678 0.055 -0.13811
-0.46935 0.06214 -0.03658
-0.46751 0.06458 -0.03838
-0.46778 0.06175 -0.03905
-0.46614 0.06374 -0.04086
-0.46622 0.06087 -0.04141
-0.46461 0.06012 -0.04378
-0.46319 0.05939 -0.04629
-0.4614 0.05899 -0.0486
-0.4598 0.05901 -0.05109
-0.45807 0.05911 -0.05348
-0.45632 0.05943 -0.05583
-0.45478 0.05924 -0.05831
-0.45331 0.0589 -0.06082
-0.45153 0.05924 -0.06312
-0.44963 0.05987 -0.06529
-0.44791 0.06058 -0.0676
-0.44608 0.06091 -0.06988
-0.44432 0.06031 -0.07219
-0.44296 0.05917 -0.07453
-0.44185 0.05793 -0.07699
-0.44062 0.05683 -0.07947
-0.43948 0.05615 -0.08209
-0.43818 0.05586 -0.08471
-0.43688 0.05553 -0.08735
-0.43554 0.05518 -0.08997
-0.43403 0.05468 -0.09249
-0.43264 0.05417 -0.09505
-0.43122 0.05361 -0.09756
-0.4299 0.0538 -0.10016
-0.42863 0.05454 -0.10271
-0.42737 0.05476 -0.10535
-0.42658 0.05452 -0.10816
-0.42561 0.05411 -0.11093
-0.42471 0.05391 -0.11373
-0.42383 0.05371 -0.11654
-0.42309 0.0535 -0.1194
-0.42259 0.05352 -0.12237
-0.42324 0.05381 -0.12532
-0.42475 0.05449 -0.12785
-0.42563 0.05537 -0.13077
-0.4246 0.05474 -0.13374
-0.42316 0.05394 -0.13626
-0.421 0.05355 -0.13823
-0.41839 0.05359 -0.13959
-0.4757 0.05978 -0.02713
-0.4742 0.06253 -0.02915
-0.47431 0.05964 -0.02973
-0.47263 0.06245 -0.03166
-0.47287 0.0596 -0.03232
-0.47101 0.06225 -0.03413
-0.47127 0.05941 -0.03482
-0.4696 0.05931 -0.03727
-0.46793 0.05889 -0.03968
-0.46639 0.05803 -0.04206
-0.46471 0.05726 -0.04438
-0.46321 0.05652 -0.04684
-0.46149 0.05614 -0.04921
-0.45991 0.05617 -0.05171
-0.45832 0.05631 -0.05421
-0.45656 0.05664 -0.05657
-0.45503 0.05646 -0.05903
-0.45358 0.05614 -0.06156
-0.45204 0.05657 -0.06405
-0.45012 0.05721 -0.06623
-0.44802 0.05782 -0.06824
-0.44613 0.05816 -0.07049
-0.44449 0.05761 -0.0729
-0.44308 0.05648 -0.07521
-0.44202 0.05527 -0.07772
-0.44099 0.05423 -0.08032
-0.4398 0.05356 -0.08293
-0.43844 0.05327 -0.08554
-0.43697 0.05291 -0.08808
-0.43566 0.05258 -0.09072
-0.43442 0.05216 -0.09338
-0.43321 0.05172 -0.09606
-0.43173 0.05112 -0.09856
-0.43027 0.05127 -0.10109
-0.42901 0.05203 -0.10364
-0.42805 0.05238 -0.1064
-0.42721 0.05215 -0.10923
-0.42618 0.05174 -0.11198
-0.42518 0.05152 -0.11476
-0.42427 0.05131 -0.11757
-0.42371 0.05116 -0.1205
-0.42368 0.05137 -0.12355
-0.42482 0.05192 -0.12632
-0.42634 0.05265 -0.12881
-0.42683 0.05323 -0.13181
-0.42594 0.05271 -0.13471
-0.42491 0.05236 -0.13756
-0.42279 0.05216 -0.13976
-0.48248 0.05824 -0.01794
-0.48024 0.06077 -0.0196
-0.48106 0.05807 -0.0206
-0.47863 0.0605 -0.02207
-0.47884 0.05757 -0.02257
-0.47706 0.06013 -0.02454
-0.47711 0.05719 -0.02492
[...]
CELL_DATA 5422
SCALARS brightness_temperature float
LOOKUP_TABLE default
POINT_DATA 2825
CELL_DATA 5422
SCALARS emission_angle float
LOOKUP_TABLE default
POINT_DATA 2825
CELL_DATA 5422
SCALARS incidence_angle float
LOOKUP_TABLE default
POINT_DATA 2825
CELL_DATA 5422
SCALARS phase_angle float
LOOKUP_TABLE default
POINT_DATA 2825
CELL_DATA 5422
SCALARS local_solar_time float
LOOKUP_TABLE default
POINT_DATA 2825
CELL_DATA 5422
SCALARS local_solar_time_normal_vector float
LOOKUP_TABLE default
CELL_DATA 5422
SCALARS pixel_x float
LOOKUP_TABLE default
POINT_DATA 2825
CELL_DATA 5422
SCALARS pixel_y float
LOOKUP_TABLE default
POINT_DATA 2825
CELL_DATA 5422
SCALARS longitude float
LOOKUP_TABLE default
POINT_DATA 2825
CELL_DATA 5422
SCALARS latitude float
LOOKUP_TABLE default
