# vtk DataFile Version 3.0
SHAPE_sfm_50k_v20200323
ASCII
DATASET POLYDATA
POINTS 395 float
-0.39854 0.27642 0.08981
-0.39771 0.2795 0.08772
-0.39954 0.27729 0.0876
-0.39893 0.28053 0.08574
-0.40058 0.27817 0.0854
-0.40052 0.28177 0.08412
-0.40178 0.27918 0.08334
-0.40139 0.2751 0.0876
-0.40035 0.27421 0.08982
-0.40238 0.27593 0.08534
-0.40345 0.27685 0.08316
-0.40303 0.28011 0.08125
-0.4046 0.27771 0.08098
-0.40406 0.28089 0.07899
-0.40571 0.27853 0.07877
-0.39918 0.27346 0.09201
-0.402 0.27191 0.09019
-0.40082 0.27118 0.0924
-0.40318 0.27293 0.08808
-0.40422 0.27379 0.08582
-0.40508 0.27451 0.08345
-0.40617 0.27532 0.08123
-0.4073 0.27612 0.079
-0.40848 0.27673 0.07675
-0.40691 0.27917 0.07655
-0.40958 0.2774 0.07447
-0.40809 0.2799 0.07435
-0.40937 0.28025 0.0721
-0.41081 0.2777 0.07218
-0.40365 0.26971 0.09093
-0.40244 0.26896 0.09314
-0.40476 0.27062 0.08872
-0.40591 0.27157 0.08653
-0.40674 0.27224 0.08411
-0.40771 0.27294 0.08179
-0.40877 0.27367 0.0795
-0.41007 0.27437 0.07731
-0.41104 0.27492 0.07491
-0.41218 0.27513 0.07255
-0.41362 0.27586 0.07049
-0.41199 0.27823 0.06991
-0.4152 0.27687 0.06863
-0.41315 0.27881 0.06763
-0.41651 0.27767 0.06646
-0.40553 0.26773 0.09182
-0.40419 0.26688 0.09396
-0.40653 0.2685 0.08948
-0.40751 0.26926 0.08715
-0.40843 0.27 0.08479
-0.40939 0.27068 0.08243
-0.41037 0.27131 0.08007
-0.41167 0.272 0.07788
-0.41262 0.27253 0.07546
-0.41383 0.27278 0.07313
-0.41514 0.27336 0.07092
-0.41674 0.27434 0.06907
-0.4185 0.27559 0.06746
-0.42003 0.27625 0.0652
-0.41772 0.27796 0.06411
-0.42046 0.27589 0.06249
-0.41855 0.27802 0.06161
-0.42142 0.27615 0.06004
-0.41953 0.27833 0.05918
-0.40727 0.26559 0.09256
-0.40596 0.26478 0.09474
-0.40831 0.26638 0.09023
-0.40921 0.26706 0.08785
-0.41011 0.26777 0.08547
-0.41106 0.26843 0.0831
-0.41207 0.26906 0.08075
-0.41335 0.26973 0.07853
-0.41432 0.27025 0.07611
-0.41568 0.27062 0.07388
-0.41675 0.27097 0.07149
-0.41817 0.27177 0.06939
-0.41968 0.27274 0.06745
-0.42132 0.27348 0.06558
-0.42226 0.2736 0.06314
-0.42315 0.27377 0.06065
-0.42419 0.2742 0.05825
-0.42239 0.27655 0.05762
-0.42515 0.27451 0.05581
-0.42347 0.27697 0.05526
-0.42612 0.27497 0.0534
-0.42478 0.27771 0.05305
-0.42719 0.27551 0.05102
-0.40921 0.26356 0.09316
-0.40807 0.26294 0.09556
-0.41017 0.26427 0.09077
-0.41105 0.26491 0.08837
-0.41207 0.26575 0.08607
-0.41293 0.26628 0.08361
-0.41395 0.26692 0.08126
-0.4152 0.26753 0.07901
-0.41617 0.26804 0.07659
-0.41745 0.26832 0.07429
-0.41858 0.26869 0.07192
-0.42015 0.26965 0.07003
-0.4219 0.27087 0.06841
-0.42367 0.2717 0.06644
-0.42468 0.27184 0.06384
-0.42519 0.27163 0.06122
-0.42595 0.27179 0.0587
-0.427 0.27214 0.0563
-0.42778 0.27245 0.05379
-0.42856 0.27278 0.05128
-0.40637 0.26174 0.09726
-0.40994 0.26066 0.09561
-0.40817 0.25951 0.09724
-0.41155 0.2618 0.0937
-0.41261 0.26268 0.09132
-0.41339 0.26321 0.0888
-0.41426 0.26384 0.08637
-0.41508 0.26434 0.08391
-0.41622 0.26509 0.08164
-0.4173 0.26551 0.07923
-0.41823 0.26596 0.0768
-0.41958 0.2663 0.07457
-0.4208 0.26677 0.0723
-0.42233 0.26765 0.07038
-0.42427 0.2689 0.06887
-0.42613 0.26962 0.06674
-0.42689 0.26961 0.06394
-0.42712 0.26929 0.06124
-0.42776 0.26937 0.0587
-0.42864 0.26957 0.05622
-0.42952 0.26994 0.05374
-0.43018 0.27019 0.05118
-0.40683 0.25866 0.09932
-0.40969 0.2571 0.09729
-0.40847 0.25635 0.09951
-0.41125 0.25807 0.09541
-0.41307 0.25922 0.09375
-0.41432 0.26021 0.0915
-0.41511 0.2608 0.08898
-0.41608 0.26154 0.08663
-0.4171 0.26222 0.08428
-0.41823 0.26289 0.08196
-0.41924 0.26324 0.07951
-0.42003 0.26362 0.077
-0.42125 0.26385 0.07467
-0.42274 0.26452 0.07257
-0.42401 0.26517 0.07035
-0.42573 0.26616 0.06852
-0.4271 0.26661 0.06616
-0.42773 0.26662 0.06349
-0.42861 0.26667 0.06099
-0.42942 0.26684 0.05847
-0.43039 0.26709 0.05603
-0.43129 0.26746 0.05355
-0.41103 0.25461 0.09764
-0.40992 0.25395 0.09995
-0.41229 0.25541 0.09545
-0.41392 0.25644 0.09359
-0.4153 0.25744 0.09151
-0.41635 0.25818 0.08915
-0.41746 0.25894 0.08685
-0.4186 0.25961 0.08451
-0.41942 0.26008 0.08201
-0.42036 0.26043 0.07958
-0.42151 0.26103 0.07729
-0.42289 0.26136 0.07507
-0.42413 0.26189 0.07278
-0.42551 0.26262 0.07061
-0.42662 0.26332 0.06827
-0.42774 0.26368 0.06589
-0.42915 0.26399 0.06361
-0.42997 0.26399 0.06104
-0.43067 0.26408 0.05847
-0.43171 0.26435 0.05604
-0.40886 0.25329 0.10229
-0.41125 0.25145 0.10028
-0.41017 0.2508 0.10262
-0.41243 0.25215 0.09801
-0.41367 0.25292 0.09579
-0.41507 0.25382 0.09372
-0.41641 0.25479 0.09161
-0.41761 0.25557 0.08933
-0.41857 0.25622 0.08688
-0.41913 0.25668 0.08429
-0.41965 0.25712 0.08173
-0.42081 0.25751 0.0794
-0.42209 0.25811 0.07716
-0.42342 0.25842 0.07487
-0.42511 0.25909 0.07291
-0.42668 0.25988 0.07087
-0.42778 0.2606 0.0685
-0.42872 0.26088 0.06601
-0.43024 0.26119 0.06382
-0.43123 0.26126 0.0613
-0.43191 0.26134 0.05871
-0.43316 0.26169 0.05637
-0.41278 0.24907 0.10035
-0.41172 0.24843 0.10271
-0.41392 0.24972 0.09803
-0.41506 0.25042 0.09573
-0.41646 0.25131 0.09364
-0.41777 0.25225 0.09149
-0.41884 0.25295 0.08908
-0.41919 0.2534 0.08642
-0.41927 0.2538 0.08377
-0.41987 0.25425 0.08119
-0.42132 0.25467 0.07897
-0.42281 0.25529 0.07685
-0.42454 0.2557 0.07486
-0.4262 0.25636 0.07286
-0.42755 0.25705 0.07065
-0.42885 0.25782 0.06843
-0.42981 0.25811 0.06594
-0.43098 0.25827 0.06355
-0.432 0.25833 0.06108
-0.43314 0.25859 0.05868
-0.43418 0.25882 0.05623
-0.41206 0.24558 0.10519
-0.41325 0.24605 0.10283
-0.41433 0.24669 0.10046
-0.41535 0.24726 0.09805
-0.41643 0.24791 0.0957
-0.41764 0.2487 0.09345
-0.41893 0.24961 0.09127
-0.41989 0.25027 0.08878
-0.41996 0.25064 0.08608
-0.41998 0.25098 0.0834
-0.42071 0.25143 0.0808
-0.42241 0.25197 0.07874
-0.42412 0.25267 0.0768
-0.4259 0.25311 0.07485
-0.42747 0.25372 0.07277
-0.42883 0.25439 0.07055
-0.42999 0.2551 0.06823
-0.43109 0.25543 0.06581
-0.4322 0.25556 0.06338
-0.43335 0.25566 0.06097
-0.4344 0.25586 0.05852
-0.41339 0.2431 0.10494
-0.41477 0.24366 0.1027
-0.4158 0.24426 0.10028
-0.41676 0.24479 0.09782
-0.41776 0.24539 0.09541
-0.41889 0.24614 0.09309
-0.42008 0.24701 0.09082
-0.42076 0.24757 0.08825
-0.42109 0.24803 0.08562
-0.42147 0.2485 0.08298
-0.4225 0.2491 0.08055
-0.42407 0.24959 0.07843
-0.42588 0.25035 0.07659
-0.42788 0.2509 0.07481
-0.42923 0.25137 0.0725
-0.43047 0.25197 0.07018
-0.43161 0.25267 0.06783
-0.43269 0.25296 0.06539
-0.43379 0.25307 0.06294
-0.4349 0.25313 0.0605
-0.41357 0.24012 0.10695
-0.41491 0.24074 0.1047
-0.41619 0.24124 0.10237
-0.41722 0.24182 0.09995
-0.4183 0.24241 0.09755
-0.41946 0.24309 0.0952
-0.42014 0.2436 0.09262
-0.42112 0.24439 0.09024
-0.42211 0.24508 0.08782
-0.42269 0.24565 0.08523
-0.42328 0.24624 0.08267
-0.42433 0.24685 0.08025
-0.42587 0.24731 0.0781
-0.42777 0.24812 0.07633
-0.42939 0.24844 0.07416
-0.43081 0.24894 0.07192
-0.43244 0.24977 0.06989
-0.43352 0.25041 0.06746
-0.43446 0.25061 0.06493
-0.43562 0.25075 0.06251
-0.43707 0.25107 0.06028
-0.41651 0.23846 0.105
-0.41515 0.23783 0.10725
-0.41781 0.23897 0.10268
-0.41877 0.23947 0.10019
-0.41984 0.24003 0.09777
-0.42064 0.24049 0.09522
-0.42123 0.24094 0.09261
-0.42216 0.24171 0.09018
-0.42332 0.24246 0.08785
-0.42427 0.24324 0.08544
-0.42499 0.24392 0.08293
-0.42599 0.24447 0.08048
-0.42747 0.24488 0.07825
-0.429 0.24546 0.0761
-0.43068 0.24581 0.07401
-0.43234 0.24642 0.07196
-0.43382 0.24713 0.06979
-0.43501 0.24781 0.06742
-0.43592 0.24801 0.06487
-0.43718 0.2482 0.0625
-0.41832 0.23646 0.10581
-0.41679 0.23566 0.10793
-0.41957 0.23689 0.1034
-0.42047 0.23728 0.10086
-0.4212 0.23758 0.09827
-0.42196 0.238 0.0957
-0.42254 0.23842 0.09308
-0.42336 0.23912 0.09059
-0.42441 0.23981 0.08818
-0.42552 0.24066 0.08587
-0.42649 0.2415 0.08349
-0.42757 0.2421 0.08109
-0.42898 0.24245 0.07881
-0.43043 0.24295 0.07658
-0.43205 0.24325 0.07443
-0.43352 0.24374 0.07221
-0.43485 0.24436 0.06992
-0.43602 0.24502 0.06756
-0.43699 0.24523 0.06503
-0.43843 0.24549 0.06274
-0.41523 0.23471 0.10994
-0.41826 0.23344 0.10882
-0.41996 0.23439 0.10685
-0.42121 0.23477 0.10439
-0.42194 0.23503 0.10176
-0.42262 0.23527 0.09914
-0.42332 0.23564 0.09655
-0.42395 0.23607 0.09394
-0.42466 0.23667 0.09139
-0.42556 0.23726 0.0889
-0.42664 0.23809 0.08656
-0.42763 0.23892 0.08419
-0.42877 0.23955 0.08182
-0.43024 0.23992 0.07957
-0.43159 0.24035 0.07726
-0.43315 0.24061 0.07506
-0.43461 0.24108 0.07282
-0.43592 0.24169 0.07053
-0.43685 0.24221 0.06803
-0.43783 0.24238 0.06547
-0.43956 0.24279 0.06337
-0.4212 0.23208 0.10795
-0.4224 0.23243 0.10547
-0.42334 0.23286 0.10294
-0.42411 0.23316 0.10035
-0.42475 0.23347 0.09774
-0.42543 0.23392 0.09514
-0.42608 0.23447 0.09257
-0.42683 0.23492 0.09001
-0.42771 0.23558 0.08753
-0.42861 0.23635 0.0851
-0.42975 0.23696 0.08272
-0.43131 0.23738 0.08053
-0.43274 0.23787 0.07828
-0.4343 0.23811 0.07608
-0.43568 0.23851 0.07379
-0.4369 0.23907 0.07144
-0.43791 0.23961 0.06898
-0.43919 0.23996 0.06662
-0.42616 0.23121 0.0988
-0.42704 0.23184 0.09631
-0.42767 0.23235 0.09371
-0.42834 0.23271 0.09111
-0.42903 0.23321 0.08854
-0.42987 0.23392 0.08607
-0.43097 0.23448 0.08366
-0.43245 0.23484 0.08141
-0.43409 0.2355 0.07936
-0.43598 0.23605 0.07744
-0.43718 0.23624 0.07495
-0.43819 0.23662 0.07247
-0.43911 0.23709 0.06996
-0.44014 0.23725 0.06745
-0.42921 0.2301 0.09466
-0.42987 0.23045 0.09205
-0.43054 0.23094 0.08948
-0.4313 0.23156 0.08697
-0.43237 0.23209 0.08454
-0.43379 0.23238 0.08224
-0.43541 0.233 0.08016
-0.43748 0.23358 0.07838
-0.43883 0.23387 0.07592
-0.43961 0.23412 0.0733
-0.44047 0.23456 0.07077
-0.44139 0.23466 0.06821
-0.43271 0.22924 0.08801
-0.43372 0.22971 0.08554
-0.43509 0.22996 0.08321
-0.43643 0.23035 0.08089
-0.43784 0.23054 0.07859
-0.43922 0.23088 0.07628
-0.44031 0.23126 0.07382
-0.44136 0.23177 0.07138
-0.4426 0.23204 0.06899
-0.43778 0.22782 0.08147
-0.439 0.22788 0.07905
-0.43995 0.22803 0.07651
-0.44101 0.2284 0.07404
-0.44213 0.22892 0.07162
-0.44377 0.22935 0.0695
POLYGONS 706 2824
3 0 1 2
3 1 3 2
3 2 3 4
3 3 5 4
3 4 5 6
3 0 7 8
3 0 2 7
3 2 9 7
3 2 4 9
3 4 10 9
3 4 6 10
3 6 11 10
3 10 11 12
3 11 13 12
3 12 13 14
3 15 16 17
3 15 8 16
3 8 18 16
3 8 7 18
3 7 19 18
3 7 9 19
3 9 20 19
3 9 10 20
3 10 21 20
3 10 12 21
3 12 22 21
3 12 14 22
3 14 23 22
3 14 24 23
3 24 25 23
3 24 26 25
3 26 27 25
3 25 27 28
3 17 29 30
3 17 16 29
3 16 31 29
3 16 18 31
3 18 32 31
3 18 19 32
3 19 33 32
3 19 20 33
3 20 34 33
3 20 21 34
3 21 35 34
3 21 22 35
3 22 36 35
3 22 23 36
3 23 37 36
3 23 25 37
3 25 28 37
3 37 28 38
3 28 39 38
3 28 40 39
3 40 41 39
3 40 42 41
3 42 43 41
3 30 44 45
3 30 29 44
3 29 46 44
3 29 31 46
3 31 47 46
3 31 32 47
3 32 48 47
3 32 33 48
3 33 49 48
3 33 34 49
3 34 50 49
3 34 35 50
3 35 51 50
3 35 36 51
3 36 52 51
3 36 37 52
3 37 53 52
3 37 38 53
3 38 54 53
3 38 39 54
3 39 55 54
3 39 41 55
3 41 56 55
3 41 43 56
3 43 57 56
3 43 58 57
3 58 59 57
3 58 60 59
3 60 61 59
3 60 62 61
3 45 63 64
3 45 44 63
3 44 65 63
3 44 46 65
3 46 66 65
3 46 47 66
3 47 67 66
3 47 48 67
3 48 68 67
3 48 49 68
3 49 69 68
3 49 50 69
3 50 70 69
3 50 51 70
3 51 71 70
3 51 52 71
3 52 72 71
3 52 53 72
3 53 73 72
3 53 54 73
3 54 74 73
3 54 55 74
3 55 75 74
3 55 56 75
3 56 57 75
3 75 57 76
3 57 59 76
3 76 59 77
3 59 78 77
3 59 61 78
3 61 79 78
3 61 80 79
3 80 81 79
3 80 82 81
3 82 83 81
3 84 85 83
3 64 86 87
3 64 63 86
3 63 88 86
3 63 65 88
3 65 89 88
3 65 66 89
3 66 90 89
3 66 67 90
3 67 91 90
3 67 68 91
3 68 92 91
3 68 69 92
3 69 93 92
3 69 70 93
3 70 94 93
3 70 71 94
3 71 72 94
3 94 72 95
3 72 96 95
3 72 73 96
3 73 97 96
3 73 74 97
3 74 98 97
3 74 75 98
3 75 99 98
3 75 76 99
3 76 100 99
3 76 77 100
3 77 101 100
3 77 78 101
3 78 102 101
3 78 79 102
3 79 103 102
3 79 81 103
3 81 104 103
3 81 83 104
3 83 105 104
3 83 85 105
3 106 107 108
3 106 87 107
3 87 109 107
3 87 86 109
3 86 110 109
3 86 88 110
3 88 111 110
3 88 89 111
3 89 112 111
3 89 90 112
3 90 113 112
3 90 91 113
3 91 114 113
3 91 92 114
3 92 93 114
3 114 93 115
3 93 94 115
3 115 94 116
3 94 95 116
3 116 95 117
3 95 96 117
3 117 96 118
3 96 119 118
3 96 97 119
3 97 120 119
3 97 98 120
3 98 99 120
3 120 99 121
3 99 100 121
3 121 100 122
3 100 101 122
3 122 101 123
3 101 102 123
3 123 102 124
3 102 103 124
3 124 103 125
3 103 104 125
3 125 104 126
3 104 105 126
3 126 105 127
3 128 129 130
3 128 108 129
3 108 107 129
3 129 107 131
3 107 132 131
3 107 109 132
3 109 133 132
3 109 110 133
3 110 134 133
3 110 111 134
3 111 135 134
3 111 112 135
3 112 136 135
3 112 113 136
3 113 137 136
3 113 114 137
3 114 115 137
3 137 115 138
3 115 139 138
3 115 116 139
3 116 117 139
3 139 117 140
3 117 118 140
3 140 118 141
3 118 119 141
3 141 119 142
3 119 120 142
3 142 120 143
3 120 121 143
3 143 121 144
3 121 122 144
3 144 122 145
3 122 123 145
3 145 123 146
3 123 124 146
3 146 124 147
3 124 125 147
3 147 125 148
3 125 126 148
3 148 126 149
3 126 127 149
3 130 150 151
3 130 129 150
3 129 152 150
3 129 131 152
3 131 153 152
3 131 132 153
3 132 154 153
3 132 133 154
3 133 155 154
3 133 134 155
3 134 156 155
3 134 135 156
3 135 157 156
3 135 136 157
3 136 158 157
3 136 137 158
3 137 138 158
3 158 138 159
3 138 160 159
3 138 139 160
3 139 140 160
3 160 140 161
3 140 162 161
3 140 141 162
3 141 163 162
3 141 142 163
3 142 164 163
3 142 143 164
3 143 144 164
3 164 144 165
3 144 145 165
3 165 145 166
3 145 146 166
3 166 146 167
3 146 147 167
3 167 147 168
3 147 148 168
3 168 148 169
3 148 149 169
3 170 171 172
3 170 151 171
3 151 173 171
3 151 150 173
3 150 174 173
3 150 152 174
3 152 175 174
3 152 153 175
3 153 176 175
3 153 154 176
3 154 177 176
3 154 155 177
3 155 178 177
3 155 156 178
3 156 179 178
3 156 157 179
3 157 158 179
3 179 158 180
3 158 159 180
3 180 159 181
3 159 160 181
3 181 160 182
3 160 161 182
3 182 161 183
3 161 162 183
3 183 162 184
3 162 185 184
3 162 163 185
3 163 186 185
3 163 164 186
3 164 165 186
3 186 165 187
3 165 166 187
3 187 166 188
3 166 167 188
3 188 167 189
3 167 168 189
3 189 168 190
3 168 169 190
3 190 169 191
3 172 192 193
3 172 171 192
3 171 194 192
3 171 173 194
3 173 195 194
3 173 174 195
3 174 175 195
3 195 175 196
3 175 197 196
3 175 176 197
3 176 177 197
3 197 177 198
3 177 178 198
3 198 178 199
3 178 179 199
3 199 179 200
3 179 180 200
3 200 180 201
3 180 181 201
3 201 181 202
3 181 182 202
3 202 182 203
3 182 183 203
3 203 183 204
3 183 184 204
3 204 184 205
3 184 185 205
3 205 185 206
3 185 186 206
3 206 186 207
3 186 187 207
3 207 187 208
3 187 188 208
3 208 188 209
3 188 189 209
3 209 189 210
3 189 190 210
3 210 190 211
3 190 191 211
3 211 191 212
3 213 193 214
3 193 215 214
3 193 192 215
3 192 216 215
3 192 194 216
3 194 217 216
3 194 195 217
3 195 196 217
3 217 196 218
3 196 219 218
3 196 197 219
3 197 198 219
3 219 198 220
3 198 221 220
3 198 199 221
3 199 222 221
3 199 200 222
3 200 201 222
3 222 201 223
3 201 202 223
3 223 202 224
3 202 203 224
3 224 203 225
3 203 204 225
3 225 204 226
3 204 205 226
3 226 205 227
3 205 206 227
3 227 206 228
3 206 207 228
3 228 207 229
3 207 208 229
3 229 208 230
3 208 209 230
3 230 209 231
3 209 210 231
3 231 210 232
3 210 211 232
3 232 211 233
3 211 212 233
3 213 214 234
3 234 214 235
3 214 215 235
3 235 215 236
3 215 216 236
3 236 216 237
3 216 217 237
3 237 217 238
3 217 218 238
3 238 218 239
3 218 219 239
3 239 219 240
3 219 220 240
3 240 220 241
3 220 221 241
3 241 221 242
3 221 222 242
3 242 222 243
3 222 223 243
3 243 223 244
3 223 224 244
3 244 224 245
3 224 225 245
3 245 225 246
3 225 226 246
3 246 226 247
3 226 227 247
3 247 227 248
3 227 228 248
3 248 228 249
3 228 229 249
3 249 229 250
3 229 230 250
3 250 230 251
3 230 231 251
3 251 231 252
3 231 232 252
3 252 232 253
3 232 233 253
3 254 234 255
3 234 235 255
3 255 235 256
3 235 236 256
3 256 236 257
3 236 237 257
3 257 237 258
3 237 238 258
3 258 238 259
3 238 239 259
3 259 239 260
3 239 240 260
3 260 240 261
3 240 241 261
3 261 241 262
3 241 242 262
3 262 242 263
3 242 243 263
3 263 243 264
3 243 244 264
3 264 244 265
3 244 245 265
3 265 245 266
3 245 246 266
3 266 246 267
3 246 247 267
3 267 247 268
3 247 248 268
3 268 248 269
3 248 249 269
3 269 249 270
3 249 250 270
3 270 250 271
3 250 251 271
3 271 251 272
3 251 252 272
3 272 252 273
3 252 253 273
3 273 253 274
3 254 275 276
3 254 255 275
3 255 277 275
3 255 256 277
3 256 278 277
3 256 257 278
3 257 279 278
3 257 258 279
3 258 280 279
3 258 259 280
3 259 281 280
3 259 260 281
3 260 282 281
3 260 261 282
3 261 283 282
3 261 262 283
3 262 284 283
3 262 263 284
3 263 285 284
3 263 264 285
3 264 286 285
3 264 265 286
3 265 266 286
3 286 266 287
3 266 267 287
3 287 267 288
3 267 268 288
3 288 268 289
3 268 269 289
3 289 269 290
3 269 270 290
3 290 270 291
3 270 271 291
3 291 271 292
3 271 272 292
3 292 272 293
3 272 273 293
3 293 273 294
3 273 274 294
3 276 295 296
3 276 275 295
3 275 297 295
3 275 277 297
3 277 298 297
3 277 278 298
3 278 299 298
3 278 279 299
3 279 300 299
3 279 280 300
3 280 301 300
3 280 281 301
3 281 302 301
3 281 282 302
3 282 303 302
3 282 283 303
3 283 304 303
3 283 284 304
3 284 305 304
3 284 285 305
3 285 306 305
3 285 286 306
3 286 307 306
3 286 287 307
3 287 308 307
3 287 288 308
3 288 289 308
3 308 289 309
3 289 290 309
3 309 290 310
3 290 311 310
3 290 291 311
3 291 312 311
3 291 292 312
3 292 293 312
3 312 293 313
3 293 294 313
3 313 294 314
3 315 296 316
3 296 317 316
3 296 295 317
3 295 318 317
3 295 297 318
3 297 319 318
3 297 298 319
3 298 320 319
3 298 299 320
3 299 321 320
3 299 300 321
3 300 322 321
3 300 301 322
3 301 323 322
3 301 302 323
3 302 324 323
3 302 303 324
3 303 325 324
3 303 304 325
3 304 326 325
3 304 305 326
3 305 327 326
3 305 306 327
3 306 328 327
3 306 307 328
3 307 329 328
3 307 308 329
3 308 330 329
3 308 309 330
3 309 331 330
3 309 310 331
3 310 332 331
3 310 311 332
3 311 333 332
3 311 312 333
3 312 334 333
3 312 313 334
3 313 335 334
3 313 314 335
3 316 317 336
3 317 337 336
3 317 318 337
3 318 338 337
3 318 319 338
3 319 339 338
3 319 320 339
3 320 340 339
3 320 321 340
3 321 341 340
3 321 322 341
3 322 342 341
3 322 323 342
3 323 343 342
3 323 324 343
3 324 344 343
3 324 325 344
3 325 345 344
3 325 326 345
3 326 346 345
3 326 327 346
3 327 347 346
3 327 328 347
3 328 348 347
3 328 329 348
3 329 349 348
3 329 330 349
3 330 350 349
3 330 331 350
3 331 351 350
3 331 332 351
3 332 352 351
3 332 333 352
3 333 353 352
3 333 334 353
3 339 340 354
3 340 355 354
3 340 341 355
3 341 356 355
3 341 342 356
3 342 357 356
3 342 343 357
3 343 358 357
3 343 344 358
3 344 359 358
3 344 345 359
3 345 360 359
3 345 346 360
3 346 361 360
3 346 347 361
3 347 362 361
3 347 348 362
3 348 363 362
3 348 349 363
3 349 364 363
3 349 350 364
3 350 365 364
3 350 351 365
3 351 366 365
3 351 352 366
3 352 367 366
3 352 353 367
3 355 356 368
3 356 369 368
3 356 357 369
3 357 370 369
3 357 358 370
3 358 371 370
3 358 359 371
3 359 372 371
3 359 360 372
3 360 373 372
3 360 361 373
3 361 374 373
3 361 362 374
3 362 375 374
3 362 363 375
3 363 376 375
3 363 364 376
3 364 377 376
3 364 365 377
3 365 378 377
3 365 366 378
3 366 379 378
3 366 367 379
3 370 371 380
3 371 381 380
3 371 372 381
3 372 382 381
3 372 373 382
3 373 383 382
3 373 374 383
3 374 375 383
3 383 375 384
3 375 385 384
3 375 376 385
3 376 386 385
3 376 377 386
3 377 387 386
3 377 378 387
3 378 388 387
3 378 379 388
3 383 384 389
3 389 384 390
3 384 391 390
3 384 385 391
3 385 392 391
3 385 386 392
3 386 393 392
3 386 387 393
3 387 394 393
3 387 388 394
CELL_DATA 706
SCALARS brightness_temperature float
LOOKUP_TABLE default
POINT_DATA 395
CELL_DATA 706
SCALARS emission_angle float
LOOKUP_TABLE default
POINT_DATA 395
CELL_DATA 706
SCALARS incidence_angle float
LOOKUP_TABLE default
POINT_DATA 395
CELL_DATA 706
SCALARS phase_angle float
LOOKUP_TABLE default
POINT_DATA 395
CELL_DATA 706
SCALARS local_solar_time float
LOOKUP_TABLE default
POINT_DATA 395
CELL_DATA 706
SCALARS local_solar_time_normal_vector float
LOOKUP_TABLE default
CELL_DATA 706
SCALARS pixel_x float
LOOKUP_TABLE default
POINT_DATA 395
CELL_DATA 706
SCALARS pixel_y float
LOOKUP_TABLE default
POINT_DATA 395
CELL_DATA 706
SCALARS longitude float
LOOKUP_TABLE default
POINT_DATA 395
CELL_DATA 706
SCALARS latitude float
LOOKUP_TABLE default
