# vtk DataFile Version 3.0
SHAPE_sfm_50k_v20200323
ASCII
DATASET POLYDATA
POINTS 190 float
-0.47313 -0.11682 -0.0362
-0.47079 -0.11885 -0.0381
-0.47229 -0.11959 -0.03571
-0.47152 -0.11604 -0.03853
-0.46926 -0.11798 -0.04044
-0.46988 -0.11515 -0.04078
-0.46787 -0.1171 -0.04284
-0.46856 -0.1143 -0.04324
-0.46663 -0.11619 -0.04532
-0.47015 -0.12168 -0.03787
-0.47166 -0.12244 -0.03551
-0.46864 -0.12082 -0.04022
-0.4672 -0.11993 -0.04259
-0.46597 -0.11903 -0.04507
-0.46465 -0.11836 -0.0476
-0.46528 -0.11552 -0.04785
-0.46327 -0.11761 -0.05008
-0.46382 -0.11476 -0.05027
-0.46181 -0.1167 -0.05248
-0.4623 -0.11384 -0.05262
-0.46025 -0.11628 -0.05491
-0.46064 -0.11342 -0.055
-0.45881 -0.11586 -0.0574
-0.45909 -0.11298 -0.05743
-0.4575 -0.11302 -0.05986
-0.45755 -0.11592 -0.06005
-0.45595 -0.11355 -0.06229
-0.45583 -0.11643 -0.06239
-0.45414 -0.11419 -0.06452
-0.45405 -0.11706 -0.06462
-0.45239 -0.11457 -0.06683
-0.45251 -0.11743 -0.06708
-0.45089 -0.11448 -0.06932
-0.45078 -0.11731 -0.06942
-0.44912 -0.1165 -0.07169
-0.44976 -0.11375 -0.07197
-0.44754 -0.11593 -0.0741
-0.46968 -0.12453 -0.03742
-0.47128 -0.1253 -0.03512
-0.46835 -0.12371 -0.03989
-0.46672 -0.12277 -0.04213
-0.46542 -0.12184 -0.04455
-0.46415 -0.12119 -0.04711
-0.46279 -0.12044 -0.04961
-0.46147 -0.11956 -0.05209
-0.46005 -0.11916 -0.0546
-0.45871 -0.11875 -0.05715
-0.45723 -0.11879 -0.05968
-0.45555 -0.11928 -0.06204
-0.45392 -0.11992 -0.06438
-0.45228 -0.12028 -0.06678
-0.45065 -0.12015 -0.06919
-0.44906 -0.11932 -0.07153
-0.44728 -0.1187 -0.07376
-0.46942 -0.12744 -0.03732
-0.47112 -0.12825 -0.03507
-0.46779 -0.12656 -0.03957
-0.46625 -0.12563 -0.04187
-0.46491 -0.12468 -0.04428
-0.46362 -0.12403 -0.04681
-0.46224 -0.12328 -0.04929
-0.46098 -0.12242 -0.05178
-0.4596 -0.12204 -0.05433
-0.45831 -0.12164 -0.05693
-0.45673 -0.12163 -0.05937
-0.45519 -0.12213 -0.0618
-0.45347 -0.12274 -0.06411
-0.45184 -0.12308 -0.0665
-0.45026 -0.12295 -0.06896
-0.44868 -0.12211 -0.07127
-0.44693 -0.12147 -0.07354
-0.46879 -0.13027 -0.03773
-0.47037 -0.13109 -0.03538
-0.46714 -0.12936 -0.03997
-0.46556 -0.12843 -0.04225
-0.46421 -0.12749 -0.04465
-0.4628 -0.12681 -0.04711
-0.46137 -0.12605 -0.04954
-0.45996 -0.12514 -0.05193
-0.45849 -0.12473 -0.05441
-0.45714 -0.12431 -0.05697
-0.45579 -0.12436 -0.05951
-0.45433 -0.12487 -0.06197
-0.45273 -0.12548 -0.06437
-0.45114 -0.12582 -0.06679
-0.44957 -0.12568 -0.06925
-0.44804 -0.12483 -0.07158
-0.44633 -0.12419 -0.07387
-0.46921 -0.13377 -0.03574
-0.46798 -0.13303 -0.03829
-0.46662 -0.13213 -0.04073
-0.4652 -0.1312 -0.04313
-0.46346 -0.13024 -0.04528
-0.46188 -0.12953 -0.04761
-0.46038 -0.12875 -0.04998
-0.45893 -0.12782 -0.05233
-0.45738 -0.12738 -0.05475
-0.45598 -0.12694 -0.05727
-0.45473 -0.12702 -0.05985
-0.45352 -0.12757 -0.06242
-0.452 -0.1282 -0.06489
-0.45039 -0.12853 -0.06729
-0.44875 -0.12836 -0.06971
-0.44724 -0.1275 -0.07203
-0.46827 -0.13648 -0.03625
-0.46709 -0.13579 -0.03879
-0.46597 -0.13496 -0.04138
-0.46454 -0.134 -0.04378
-0.46279 -0.133 -0.04591
-0.46121 -0.13228 -0.04824
-0.45971 -0.13149 -0.0506
-0.45817 -0.13056 -0.05289
-0.45664 -0.13012 -0.05532
-0.4553 -0.12969 -0.05787
-0.45416 -0.12975 -0.06052
-0.45285 -0.13028 -0.06305
-0.45119 -0.13089 -0.06541
-0.44954 -0.1312 -0.06777
-0.44799 -0.13103 -0.07024
-0.44642 -0.13015 -0.07251
-0.4692 -0.13988 -0.034
-0.4678 -0.13936 -0.03653
-0.46635 -0.13863 -0.03891
-0.46512 -0.13778 -0.04138
-0.46391 -0.13687 -0.04388
-0.46262 -0.13591 -0.04633
-0.46099 -0.13517 -0.04864
-0.45947 -0.13437 -0.05098
-0.45799 -0.13342 -0.05331
-0.45646 -0.13298 -0.05574
-0.45521 -0.13253 -0.05833
-0.45406 -0.13258 -0.061
-0.45242 -0.13309 -0.06335
-0.45064 -0.13367 -0.0656
-0.44899 -0.13397 -0.06795
-0.44754 -0.13378 -0.07047
-0.44578 -0.13287 -0.0726
-0.46861 -0.14275 -0.03426
-0.46686 -0.14215 -0.03654
-0.46535 -0.14138 -0.03886
-0.46422 -0.14056 -0.04139
-0.4633 -0.13973 -0.04403
-0.46197 -0.13878 -0.04647
-0.46055 -0.13806 -0.04891
-0.45914 -0.13726 -0.05131
-0.4579 -0.13631 -0.05375
-0.45653 -0.13584 -0.05627
-0.45527 -0.13539 -0.05885
-0.45389 -0.13543 -0.0614
-0.45214 -0.13593 -0.06367
-0.45043 -0.13651 -0.06597
-0.44924 -0.1367 -0.06862
-0.44761 -0.13647 -0.07103
-0.44551 -0.13563 -0.07285
-0.46785 -0.14554 -0.03465
-0.4663 -0.14493 -0.03706
-0.46478 -0.14416 -0.03941
-0.4634 -0.14332 -0.0418
-0.46242 -0.1425 -0.04441
-0.46124 -0.14159 -0.04693
-0.45982 -0.14088 -0.04937
-0.45827 -0.14004 -0.05167
-0.45725 -0.13913 -0.05421
-0.45603 -0.13867 -0.05681
-0.45491 -0.13821 -0.05946
-0.45349 -0.13824 -0.06195
-0.45192 -0.13872 -0.06433
-0.45078 -0.13917 -0.067
-0.45027 -0.13898 -0.06997
-0.44839 -0.13881 -0.07231
-0.46135 -0.14513 -0.04511
-0.46009 -0.14421 -0.04758
-0.45848 -0.14345 -0.04987
-0.45721 -0.14267 -0.05235
-0.45643 -0.14179 -0.055
-0.45537 -0.14135 -0.05767
-0.45435 -0.1409 -0.06037
-0.45306 -0.14091 -0.06292
-0.45193 -0.14133 -0.06554
-0.45212 -0.14134 -0.06865
-0.45105 -0.14137 -0.07152
-0.44914 -0.14114 -0.07395
-0.45661 -0.14538 -0.05322
-0.45577 -0.1445 -0.05584
-0.45472 -0.14405 -0.05852
-0.45377 -0.1436 -0.06123
-0.45285 -0.14359 -0.06395
-0.45279 -0.14387 -0.06685
-0.45247 -0.14415 -0.06988
-0.45115 -0.14422 -0.07267
POLYGONS 326 1304
3 0 1 2
3 0 3 1
3 3 4 1
3 3 5 4
3 5 6 4
3 5 7 6
3 7 8 6
3 2 9 10
3 2 1 9
3 1 11 9
3 1 4 11
3 4 12 11
3 4 6 12
3 6 13 12
3 6 8 13
3 8 14 13
3 8 15 14
3 15 16 14
3 15 17 16
3 17 18 16
3 17 19 18
3 19 20 18
3 19 21 20
3 21 22 20
3 21 23 22
3 23 24 22
3 22 24 25
3 24 26 25
3 25 26 27
3 26 28 27
3 27 28 29
3 28 30 29
3 29 30 31
3 30 32 31
3 31 32 33
3 32 34 33
3 32 35 34
3 35 36 34
3 10 37 38
3 10 9 37
3 9 39 37
3 9 11 39
3 11 40 39
3 11 12 40
3 12 41 40
3 12 13 41
3 13 42 41
3 13 14 42
3 14 43 42
3 14 16 43
3 16 44 43
3 16 18 44
3 18 45 44
3 18 20 45
3 20 46 45
3 20 22 46
3 22 25 46
3 46 25 47
3 25 27 47
3 47 27 48
3 27 29 48
3 48 29 49
3 29 31 49
3 49 31 50
3 31 51 50
3 31 33 51
3 33 52 51
3 33 34 52
3 34 53 52
3 34 36 53
3 38 54 55
3 38 37 54
3 37 56 54
3 37 39 56
3 39 57 56
3 39 40 57
3 40 58 57
3 40 41 58
3 41 59 58
3 41 42 59
3 42 60 59
3 42 43 60
3 43 61 60
3 43 44 61
3 44 62 61
3 44 45 62
3 45 63 62
3 45 46 63
3 46 47 63
3 63 47 64
3 47 48 64
3 64 48 65
3 48 49 65
3 65 49 66
3 49 50 66
3 66 50 67
3 50 51 67
3 67 51 68
3 51 69 68
3 51 52 69
3 52 70 69
3 52 53 70
3 55 71 72
3 55 54 71
3 54 73 71
3 54 56 73
3 56 74 73
3 56 57 74
3 57 75 74
3 57 58 75
3 58 59 75
3 75 59 76
3 59 77 76
3 59 60 77
3 60 78 77
3 60 61 78
3 61 62 78
3 78 62 79
3 62 63 79
3 79 63 80
3 63 64 80
3 80 64 81
3 64 65 81
3 81 65 82
3 65 66 82
3 82 66 83
3 66 67 83
3 83 67 84
3 67 68 84
3 84 68 85
3 68 86 85
3 68 69 86
3 69 70 86
3 86 70 87
3 72 71 88
3 88 71 89
3 71 73 89
3 89 73 90
3 73 74 90
3 90 74 91
3 74 75 91
3 91 75 92
3 75 76 92
3 92 76 93
3 76 77 93
3 93 77 94
3 77 95 94
3 77 78 95
3 78 79 95
3 95 79 96
3 79 80 96
3 96 80 97
3 80 81 97
3 97 81 98
3 81 82 98
3 98 82 99
3 82 83 99
3 99 83 100
3 83 84 100
3 100 84 101
3 84 85 101
3 101 85 102
3 85 86 102
3 102 86 103
3 86 87 103
3 88 89 104
3 104 89 105
3 89 90 105
3 105 90 106
3 90 91 106
3 106 91 107
3 91 92 107
3 107 92 108
3 92 93 108
3 108 93 109
3 93 94 109
3 109 94 110
3 94 95 110
3 110 95 111
3 95 96 111
3 111 96 112
3 96 97 112
3 112 97 113
3 97 98 113
3 113 98 114
3 98 99 114
3 114 99 115
3 99 100 115
3 115 100 116
3 100 101 116
3 116 101 117
3 101 102 117
3 117 102 118
3 102 103 118
3 118 103 119
3 120 104 121
3 104 122 121
3 104 105 122
3 105 123 122
3 105 106 123
3 106 124 123
3 106 107 124
3 107 125 124
3 107 108 125
3 108 109 125
3 125 109 126
3 109 127 126
3 109 110 127
3 110 128 127
3 110 111 128
3 111 112 128
3 128 112 129
3 112 113 129
3 129 113 130
3 113 114 130
3 130 114 131
3 114 115 131
3 131 115 132
3 115 116 132
3 132 116 133
3 116 117 133
3 133 117 134
3 117 118 134
3 134 118 135
3 118 136 135
3 118 119 136
3 120 121 137
3 137 121 138
3 121 139 138
3 121 122 139
3 122 140 139
3 122 123 140
3 123 141 140
3 123 124 141
3 124 142 141
3 124 125 142
3 125 143 142
3 125 126 143
3 126 144 143
3 126 127 144
3 127 145 144
3 127 128 145
3 128 129 145
3 145 129 146
3 129 130 146
3 146 130 147
3 130 131 147
3 147 131 148
3 131 132 148
3 148 132 149
3 132 133 149
3 149 133 150
3 133 134 150
3 150 134 151
3 134 135 151
3 151 135 152
3 135 153 152
3 135 136 153
3 137 138 154
3 154 138 155
3 138 139 155
3 155 139 156
3 139 157 156
3 139 140 157
3 140 158 157
3 140 141 158
3 141 159 158
3 141 142 159
3 142 143 159
3 159 143 160
3 143 161 160
3 143 144 161
3 144 162 161
3 144 145 162
3 145 146 162
3 162 146 163
3 146 147 163
3 163 147 164
3 147 148 164
3 164 148 165
3 148 149 165
3 165 149 166
3 149 150 166
3 166 150 167
3 150 151 167
3 167 151 168
3 151 152 168
3 168 152 169
3 152 153 169
3 158 159 170
3 170 159 171
3 159 160 171
3 171 160 172
3 160 161 172
3 172 161 173
3 161 162 173
3 173 162 174
3 162 163 174
3 174 163 175
3 163 164 175
3 175 164 176
3 164 165 176
3 176 165 177
3 165 166 177
3 177 166 178
3 166 167 178
3 178 167 179
3 167 168 179
3 179 168 180
3 168 169 180
3 180 169 181
3 173 174 182
3 182 174 183
3 174 175 183
3 183 175 184
3 175 176 184
3 184 176 185
3 176 177 185
3 185 177 186
3 177 178 186
3 186 178 187
3 178 179 187
3 187 179 188
3 179 180 188
3 188 180 189
3 180 181 189
CELL_DATA 326
SCALARS brightness_temperature float
LOOKUP_TABLE default
POINT_DATA 190
CELL_DATA 326
SCALARS emission_angle float
LOOKUP_TABLE default
POINT_DATA 190
CELL_DATA 326
SCALARS incidence_angle float
LOOKUP_TABLE default
POINT_DATA 190
CELL_DATA 326
SCALARS phase_angle float
LOOKUP_TABLE default
POINT_DATA 190
CELL_DATA 326
SCALARS local_solar_time float
LOOKUP_TABLE default
POINT_DATA 190
CELL_DATA 326
SCALARS local_solar_time_normal_vector float
LOOKUP_TABLE default
CELL_DATA 326
SCALARS pixel_x float
LOOKUP_TABLE default
POINT_DATA 190
CELL_DATA 326
SCALARS pixel_y float
LOOKUP_TABLE default
POINT_DATA 190
CELL_DATA 326
SCALARS longitude float
LOOKUP_TABLE default
POINT_DATA 190
CELL_DATA 326
SCALARS latitude float
LOOKUP_TABLE default
