# vtk DataFile Version 3.0
SHAPE_sfm_50k_v20200323
ASCII
DATASET POLYDATA
POINTS 2697 float
-0.40276 -0.08143 -0.15443
-0.40094 -0.07928 -0.15658
-0.40099 -0.08178 -0.15679
-0.39946 -0.07923 -0.15913
-0.39939 -0.08172 -0.15927
-0.39811 -0.08102 -0.16184
-0.398 -0.07853 -0.16162
-0.39648 -0.08037 -0.16426
-0.39625 -0.07792 -0.16394
-0.39479 -0.07967 -0.16662
-0.39473 -0.07721 -0.16639
-0.39301 -0.07896 -0.16889
-0.39315 -0.07649 -0.16882
-0.39139 -0.07804 -0.17118
-0.3914 -0.07558 -0.17103
-0.38981 -0.07723 -0.17353
-0.40658 -0.08165 -0.14688
-0.40576 -0.07971 -0.14957
-0.40526 -0.08218 -0.14946
-0.40443 -0.08072 -0.15205
-0.40404 -0.0832 -0.15199
-0.40268 -0.08393 -0.15454
-0.40102 -0.08428 -0.157
-0.39935 -0.08422 -0.15945
-0.39806 -0.08352 -0.16201
-0.39671 -0.08287 -0.16461
-0.39489 -0.08215 -0.16691
-0.39269 -0.08141 -0.1688
-0.39114 -0.08048 -0.17113
-0.38962 -0.07968 -0.17354
-0.38787 -0.07913 -0.17589
-0.38817 -0.07671 -0.17594
-0.38619 -0.07861 -0.17827
-0.38687 -0.07627 -0.17858
-0.38476 -0.07827 -0.18088
-0.38538 -0.07589 -0.1812
-0.41337 -0.08444 -0.13432
-0.41262 -0.08231 -0.13677
-0.4119 -0.08478 -0.13687
-0.41103 -0.08271 -0.13925
-0.41031 -0.08515 -0.13936
-0.40958 -0.08256 -0.14185
-0.40891 -0.08502 -0.14199
-0.40753 -0.08447 -0.14456
-0.40808 -0.08199 -0.14435
-0.40611 -0.08413 -0.14712
-0.40482 -0.08466 -0.14969
-0.40359 -0.08567 -0.15222
-0.40256 -0.0864 -0.15493
-0.40111 -0.08674 -0.15753
-0.39929 -0.08669 -0.15989
-0.39785 -0.086 -0.16238
-0.39631 -0.08534 -0.16484
-0.39454 -0.08461 -0.16713
-0.39249 -0.08385 -0.16914
-0.39076 -0.0829 -0.17132
-0.38903 -0.08205 -0.17356
-0.38736 -0.08149 -0.17595
-0.38562 -0.08095 -0.17829
-0.38385 -0.0805 -0.18064
-0.43015 -0.0888 -0.108
-0.42954 -0.08694 -0.11014
-0.42846 -0.08933 -0.1104
-0.42763 -0.0871 -0.11242
-0.42657 -0.08948 -0.1127
-0.42594 -0.08688 -0.11486
-0.42488 -0.08926 -0.11514
-0.42445 -0.0863 -0.11737
-0.42337 -0.08866 -0.11763
-0.42204 -0.08773 -0.12012
-0.42297 -0.08532 -0.11976
-0.42051 -0.08677 -0.12246
-0.42132 -0.08432 -0.12201
-0.4198 -0.08368 -0.12446
-0.419 -0.08612 -0.1249
-0.41803 -0.08359 -0.1268
-0.41749 -0.08608 -0.12737
-0.41637 -0.08422 -0.12921
-0.41575 -0.08669 -0.12975
-0.41476 -0.08446 -0.1317
-0.41415 -0.08692 -0.13226
-0.41265 -0.08687 -0.1348
-0.41111 -0.08717 -0.1373
-0.40953 -0.08754 -0.1398
-0.40805 -0.08738 -0.14238
-0.40675 -0.08685 -0.14499
-0.40558 -0.08654 -0.14765
-0.40438 -0.08707 -0.15028
-0.40335 -0.08809 -0.1529
-0.40239 -0.08882 -0.15562
-0.40098 -0.08915 -0.15825
-0.39908 -0.0891 -0.16056
-0.39748 -0.08841 -0.16295
-0.39606 -0.08774 -0.16549
-0.39416 -0.08702 -0.16769
-0.39185 -0.08623 -0.1694
-0.39009 -0.08526 -0.17155
-0.38849 -0.0844 -0.17388
-0.38682 -0.08382 -0.17625
-0.38509 -0.08327 -0.1786
-0.38336 -0.08282 -0.18096
-0.44914 -0.09436 -0.07432
-0.44817 -0.09245 -0.07566
-0.4472 -0.09488 -0.07655
-0.44627 -0.09289 -0.07795
-0.44506 -0.09526 -0.07863
-0.44446 -0.09285 -0.08033
-0.44316 -0.09519 -0.08093
-0.44306 -0.09207 -0.08282
-0.44157 -0.09433 -0.08326
-0.44033 -0.09314 -0.08566
-0.44197 -0.09098 -0.08535
-0.43933 -0.09191 -0.08815
-0.43217 -0.08982 -0.10374
-0.43186 -0.08817 -0.10568
-0.43059 -0.09047 -0.10615
-0.429 -0.09112 -0.10853
-0.42722 -0.09161 -0.11087
-0.42537 -0.09178 -0.1132
-0.42386 -0.09159 -0.11575
-0.42249 -0.09102 -0.11832
-0.42109 -0.09008 -0.12075
-0.41959 -0.08913 -0.12311
-0.41808 -0.08849 -0.12553
-0.41656 -0.08846 -0.12799
-0.41493 -0.08908 -0.13043
-0.41338 -0.0893 -0.13296
-0.41199 -0.08925 -0.13555
-0.41047 -0.08954 -0.13805
-0.40887 -0.08989 -0.14054
-0.40725 -0.08971 -0.14302
-0.40602 -0.08918 -0.14566
-0.40511 -0.08891 -0.14841
-0.40405 -0.08945 -0.15108
-0.40314 -0.09047 -0.15373
-0.40203 -0.09122 -0.15638
-0.40059 -0.09154 -0.15898
-0.39881 -0.09147 -0.16138
-0.39705 -0.09079 -0.16364
-0.3953 -0.09012 -0.16593
-0.39324 -0.08936 -0.16791
-0.39109 -0.08855 -0.16976
-0.38931 -0.08755 -0.17187
-0.3879 -0.08672 -0.17431
-0.38637 -0.08614 -0.17678
-0.38469 -0.08558 -0.17916
-0.38292 -0.08513 -0.18148
-0.45233 -0.09719 -0.07105
-0.451 -0.09416 -0.07205
-0.45023 -0.0967 -0.073
-0.4484 -0.09688 -0.07529
-0.4462 -0.09737 -0.07727
-0.44397 -0.09771 -0.07921
-0.442 -0.09762 -0.08142
-0.44035 -0.09674 -0.08367
-0.43924 -0.0956 -0.08613
-0.43828 -0.09439 -0.08862
-0.43727 -0.09346 -0.09122
-0.43851 -0.09106 -0.09087
-0.43643 -0.09271 -0.09395
-0.43766 -0.0903 -0.09359
-0.43659 -0.08961 -0.09625
-0.43546 -0.09206 -0.09666
-0.43532 -0.0892 -0.09885
-0.43412 -0.0916 -0.09924
-0.43365 -0.08923 -0.10126
-0.43252 -0.09166 -0.10168
-0.43082 -0.09213 -0.10402
-0.42939 -0.09282 -0.1065
-0.42793 -0.0935 -0.10895
-0.42616 -0.09398 -0.11128
-0.42449 -0.09421 -0.11372
-0.42358 -0.09408 -0.11655
-0.42219 -0.09351 -0.11909
-0.42046 -0.09256 -0.12128
-0.41891 -0.09161 -0.1236
-0.4174 -0.09097 -0.12605
-0.41594 -0.09093 -0.12855
-0.41425 -0.09155 -0.13093
-0.41291 -0.09178 -0.13357
-0.41145 -0.09172 -0.13611
-0.40997 -0.09199 -0.13863
-0.40832 -0.09232 -0.14107
-0.40664 -0.09215 -0.1435
-0.40558 -0.09162 -0.14621
-0.40479 -0.09134 -0.14901
-0.4038 -0.09189 -0.15169
-0.40286 -0.09293 -0.15431
-0.40161 -0.09367 -0.15689
-0.40032 -0.09401 -0.15957
-0.39845 -0.09393 -0.16191
-0.39645 -0.09322 -0.16394
-0.39463 -0.09252 -0.16615
-0.39273 -0.09176 -0.16827
-0.39051 -0.09093 -0.17004
-0.38881 -0.08992 -0.17219
-0.38741 -0.08907 -0.17462
-0.38591 -0.0885 -0.17709
-0.38439 -0.08795 -0.17957
-0.3826 -0.08748 -0.18187
-0.45141 -0.09985 -0.07117
-0.44966 -0.09939 -0.07349
-0.44748 -0.09952 -0.07548
-0.44533 -0.09998 -0.07746
-0.44313 -0.10033 -0.07941
-0.44122 -0.10024 -0.08164
-0.43956 -0.09935 -0.08388
-0.43831 -0.09816 -0.08622
-0.43734 -0.09695 -0.0887
-0.43633 -0.09601 -0.0913
-0.43522 -0.09515 -0.09388
-0.43446 -0.09459 -0.09668
-0.43323 -0.09416 -0.09934
-0.4315 -0.09416 -0.10172
-0.42992 -0.09466 -0.10412
-0.42861 -0.09537 -0.10665
-0.42705 -0.096 -0.10904
-0.42564 -0.09655 -0.11155
-0.42408 -0.0968 -0.11404
-0.4236 -0.09671 -0.117
-0.42217 -0.09611 -0.11957
-0.4202 -0.09516 -0.12157
-0.41867 -0.0942 -0.1239
-0.41714 -0.09355 -0.12633
-0.41557 -0.0935 -0.12878
-0.41416 -0.09414 -0.1313
-0.41282 -0.09436 -0.13391
-0.41129 -0.09428 -0.13642
-0.40975 -0.09453 -0.13891
-0.40808 -0.09485 -0.14132
-0.40657 -0.09469 -0.14384
-0.40554 -0.09414 -0.14656
-0.40472 -0.09383 -0.14936
-0.4036 -0.09439 -0.15199
-0.40244 -0.09542 -0.1545
-0.40118 -0.09617 -0.15707
-0.39978 -0.09653 -0.15969
-0.39784 -0.0964 -0.16195
-0.39588 -0.09567 -0.16401
-0.39406 -0.09496 -0.1662
-0.39211 -0.09417 -0.16825
-0.39011 -0.09334 -0.17023
-0.38853 -0.09233 -0.17247
-0.38718 -0.09147 -0.17492
-0.38557 -0.09089 -0.17731
-0.38403 -0.09033 -0.17976
-0.38228 -0.08986 -0.18209
-0.45065 -0.10256 -0.0712
-0.44915 -0.10213 -0.07369
-0.44738 -0.10221 -0.07607
-0.445 -0.10269 -0.07781
-0.44268 -0.10304 -0.07958
-0.44077 -0.10294 -0.0818
-0.43914 -0.10205 -0.08404
-0.43776 -0.10083 -0.08629
-0.43666 -0.09957 -0.08868
-0.43557 -0.09861 -0.09123
-0.43444 -0.09775 -0.09379
-0.43348 -0.09711 -0.09649
-0.43245 -0.09676 -0.09923
-0.43075 -0.09674 -0.10163
-0.42933 -0.09727 -0.10414
-0.42767 -0.09788 -0.10648
-0.4264 -0.09858 -0.109
-0.42506 -0.09914 -0.11154
-0.42389 -0.09943 -0.1142
-0.42284 -0.09928 -0.11693
-0.42184 -0.09872 -0.11963
-0.42011 -0.09776 -0.12183
-0.41843 -0.0968 -0.12403
-0.41704 -0.09616 -0.12655
-0.41537 -0.0961 -0.12894
-0.41389 -0.09673 -0.1314
-0.41244 -0.09694 -0.13395
-0.41102 -0.09685 -0.13651
-0.40948 -0.09708 -0.139
-0.40804 -0.0974 -0.14155
-0.407 -0.09717 -0.14429
-0.40634 -0.09651 -0.14711
-0.40516 -0.09628 -0.14983
-0.40355 -0.09692 -0.15221
-0.40214 -0.09794 -0.15458
-0.40051 -0.09862 -0.15694
-0.39877 -0.09884 -0.1593
-0.39702 -0.09876 -0.16165
-0.39529 -0.0981 -0.16392
-0.39349 -0.09738 -0.16611
-0.39164 -0.0966 -0.16824
-0.38987 -0.09579 -0.17044
-0.38831 -0.09476 -0.17267
-0.38685 -0.09389 -0.17505
-0.38547 -0.0933 -0.17758
-0.38373 -0.09272 -0.17989
-0.38197 -0.09223 -0.18218
-0.45027 -0.10531 -0.07163
-0.44942 -0.10484 -0.0745
-0.4474 -0.10493 -0.07686
-0.44477 -0.10542 -0.07829
-0.44229 -0.10575 -0.07981
-0.44032 -0.10564 -0.08196
-0.43878 -0.10475 -0.08427
-0.43734 -0.10352 -0.08648
-0.43619 -0.10224 -0.08884
-0.43505 -0.10127 -0.09135
-0.43381 -0.10039 -0.09387
-0.43275 -0.09971 -0.09652
-0.43157 -0.0993 -0.09916
-0.4307 -0.09949 -0.10202
-0.42888 -0.09995 -0.10437
-0.42682 -0.10041 -0.10642
-0.42547 -0.10108 -0.1089
-0.42451 -0.10173 -0.11157
-0.42364 -0.10206 -0.11435
-0.42265 -0.1019 -0.1171
-0.42206 -0.1013 -0.11997
-0.4201 -0.10038 -0.12204
-0.41819 -0.09942 -0.12407
-0.41672 -0.09877 -0.12654
-0.41514 -0.0987 -0.129
-0.41356 -0.09932 -0.1314
-0.41208 -0.09952 -0.13394
-0.41067 -0.09941 -0.13651
-0.40924 -0.09964 -0.13906
-0.40818 -0.09993 -0.1418
-0.40775 -0.09961 -0.14469
-0.40728 -0.09897 -0.14766
-0.40547 -0.09885 -0.15014
-0.40353 -0.09947 -0.15226
-0.40175 -0.10045 -0.15438
-0.40001 -0.10108 -0.15666
-0.39815 -0.10125 -0.15893
-0.39658 -0.1012 -0.16139
-0.39499 -0.10057 -0.16375
-0.39322 -0.09985 -0.16597
-0.39145 -0.09907 -0.16818
-0.38981 -0.09825 -0.17047
-0.38847 -0.0972 -0.17286
-0.38661 -0.09632 -0.17496
-0.38516 -0.09572 -0.17744
-0.38371 -0.09514 -0.17994
-0.38196 -0.09464 -0.18224
-0.45013 -0.10811 -0.07205
-0.44915 -0.10774 -0.07491
-0.4469 -0.10779 -0.07705
-0.44424 -0.10814 -0.07839
-0.44195 -0.10845 -0.08018
-0.43986 -0.10833 -0.08222
-0.43842 -0.10743 -0.0846
-0.43711 -0.10621 -0.08689
-0.4358 -0.10492 -0.08915
-0.43467 -0.10394 -0.09168
-0.43347 -0.10307 -0.09421
-0.43227 -0.10236 -0.09678
-0.43116 -0.10199 -0.09948
-0.4296 -0.10205 -0.10201
-0.42767 -0.1024 -0.1042
-0.4258 -0.10288 -0.10639
-0.4245 -0.10355 -0.10891
-0.42362 -0.10423 -0.11161
-0.42318 -0.10466 -0.11448
-0.42274 -0.10454 -0.11738
-0.42222 -0.10396 -0.12031
-0.42033 -0.10297 -0.12248
-0.41821 -0.10203 -0.12431
-0.41644 -0.10137 -0.12658
-0.41486 -0.1013 -0.12903
-0.41342 -0.10193 -0.13153
-0.41199 -0.10211 -0.13409
-0.41048 -0.10199 -0.1366
-0.40906 -0.1022 -0.13917
-0.40813 -0.10247 -0.14195
[...]
CELL_DATA 5172
SCALARS brightness_temperature float
LOOKUP_TABLE default
POINT_DATA 2697
CELL_DATA 5172
SCALARS emission_angle float
LOOKUP_TABLE default
POINT_DATA 2697
CELL_DATA 5172
SCALARS incidence_angle float
LOOKUP_TABLE default
POINT_DATA 2697
CELL_DATA 5172
SCALARS phase_angle float
LOOKUP_TABLE default
POINT_DATA 2697
CELL_DATA 5172
SCALARS local_solar_time float
LOOKUP_TABLE default
POINT_DATA 2697
CELL_DATA 5172
SCALARS local_solar_time_normal_vector float
LOOKUP_TABLE default
CELL_DATA 5172
SCALARS pixel_x float
LOOKUP_TABLE default
POINT_DATA 2697
CELL_DATA 5172
SCALARS pixel_y float
LOOKUP_TABLE default
POINT_DATA 2697
CELL_DATA 5172
SCALARS longitude float
LOOKUP_TABLE default
POINT_DATA 2697
CELL_DATA 5172
SCALARS latitude float
LOOKUP_TABLE default
