# vtk DataFile Version 3.0
SHAPE_sfm_50k_v20200323
ASCII
DATASET POLYDATA
POINTS 1342 float
0.03794 -0.49129 0.03578
0.03475 -0.49316 0.03398
0.03798 -0.49318 0.03325
0.03745 -0.49476 0.03058
0.0342 -0.49477 0.03134
0.03666 -0.49609 0.02783
0.03341 -0.49614 0.02862
0.03591 -0.49762 0.02519
0.04119 -0.49077 0.03545
0.04125 -0.49268 0.03296
0.04072 -0.49422 0.03027
0.03997 -0.49569 0.02759
0.03924 -0.49726 0.02496
0.03873 -0.49879 0.02224
0.03537 -0.49908 0.02246
0.03848 -0.50026 0.01947
0.03513 -0.50067 0.01976
0.03501 -0.50189 0.01688
0.03833 -0.50137 0.01652
0.03541 -0.50311 0.01403
0.03868 -0.50237 0.01356
0.03597 -0.50417 0.01112
0.03924 -0.50344 0.01066
0.03633 -0.50533 0.00821
0.03958 -0.5045 0.00771
0.03675 -0.50666 0.00542
0.04004 -0.50592 0.00495
0.03724 -0.50781 0.00253
0.04061 -0.50736 0.00219
0.0377 -0.50861 -0.00046
0.04108 -0.50822 -0.00081
0.03805 -0.50937 -0.0035
0.04139 -0.50874 -0.00391
0.03781 -0.51018 -0.00652
0.04115 -0.50953 -0.00695
0.03808 -0.51113 -0.00948
0.0414 -0.51041 -0.00994
0.03872 -0.51164 -0.01249
0.04205 -0.51099 -0.01294
0.03929 -0.51207 -0.01556
0.04264 -0.5115 -0.01599
0.03927 -0.51239 -0.0187
0.04266 -0.512 -0.01908
0.0422 -0.51248 -0.02214
0.04449 -0.49194 0.03299
0.04444 -0.49014 0.03556
0.04399 -0.49354 0.03035
0.04326 -0.49507 0.02769
0.04253 -0.49656 0.02501
0.04203 -0.49807 0.02227
0.04175 -0.49938 0.01942
0.04164 -0.50064 0.01653
0.042 -0.50165 0.01357
0.0425 -0.50249 0.01058
0.04281 -0.50346 0.00759
0.04323 -0.50469 0.00471
0.04384 -0.50622 0.00202
0.04438 -0.50734 -0.00086
0.04474 -0.50808 -0.00389
0.04453 -0.50895 -0.00691
0.04477 -0.50982 -0.00991
0.04543 -0.5104 -0.01293
0.04603 -0.51094 -0.01598
0.0461 -0.51201 -0.01893
0.04561 -0.51219 -0.02202
0.04492 -0.51278 -0.02505
0.0415 -0.51298 -0.02516
0.04434 -0.51308 -0.02815
0.04092 -0.51334 -0.02825
0.04407 -0.51238 -0.03123
0.04068 -0.51281 -0.03134
0.04088 -0.51194 -0.03435
0.04421 -0.51127 -0.03419
0.04117 -0.51106 -0.03734
0.04458 -0.51083 -0.03731
0.04136 -0.51017 -0.04033
0.04474 -0.50981 -0.04029
0.0445 -0.50849 -0.04315
0.04117 -0.50908 -0.04328
0.04122 -0.5082 -0.04631
0.04454 -0.50761 -0.0462
0.04143 -0.50766 -0.04943
0.04479 -0.50751 -0.04937
0.04476 -0.50777 -0.05252
0.04132 -0.50775 -0.05262
0.04454 -0.50766 -0.05574
0.04112 -0.50693 -0.05569
0.04426 -0.50643 -0.05867
0.04095 -0.50559 -0.05855
0.04361 -0.50524 -0.06151
0.0477 -0.49116 0.03333
0.04767 -0.48958 0.03603
0.04723 -0.4929 0.03076
0.04651 -0.49435 0.02805
0.04579 -0.49578 0.02534
0.04527 -0.49713 0.02253
0.04498 -0.49834 0.01963
0.04489 -0.49974 0.0168
0.0452 -0.50054 0.01377
0.04568 -0.50129 0.01074
0.04609 -0.50255 0.00786
0.04655 -0.50392 0.00506
0.04713 -0.50541 0.00235
0.0477 -0.50664 -0.0005
0.04806 -0.50733 -0.00355
0.04786 -0.50828 -0.00654
0.0481 -0.50913 -0.00956
0.04877 -0.50972 -0.01258
0.04938 -0.51036 -0.01561
0.04949 -0.51168 -0.01848
0.049 -0.51218 -0.02152
0.04828 -0.51244 -0.02458
0.04771 -0.51271 -0.0277
0.04743 -0.51196 -0.03078
0.04757 -0.51087 -0.03374
0.0478 -0.50988 -0.03671
0.04791 -0.50873 -0.03963
0.04771 -0.50758 -0.04258
0.04784 -0.5071 -0.04573
0.04817 -0.50736 -0.0489
0.04797 -0.5068 -0.05199
0.04796 -0.50697 -0.05521
0.04774 -0.50619 -0.05833
0.0471 -0.50512 -0.06126
0.04643 -0.50407 -0.06415
0.04301 -0.50461 -0.06454
0.04574 -0.50304 -0.06703
0.04239 -0.50377 -0.06756
0.04517 -0.50196 -0.07011
0.04174 -0.50249 -0.07054
0.05079 -0.49024 0.03412
0.05077 -0.48873 0.03688
0.05031 -0.4918 0.03145
0.04965 -0.4935 0.02888
0.04894 -0.49496 0.02618
0.04844 -0.49635 0.02339
0.04818 -0.49765 0.02054
0.04807 -0.49894 0.01766
0.0483 -0.49937 0.01453
0.04883 -0.50023 0.01152
0.04927 -0.50173 0.00877
0.04976 -0.50336 0.00611
0.05029 -0.50442 0.0032
0.05084 -0.50549 0.0003
0.05126 -0.50648 -0.00264
0.05106 -0.50748 -0.00562
0.05131 -0.50836 -0.00863
0.05201 -0.50912 -0.01159
0.05261 -0.50971 -0.01462
0.05262 -0.51053 -0.01762
0.05218 -0.51136 -0.02058
0.05151 -0.51189 -0.02361
0.05098 -0.51236 -0.02673
0.05072 -0.51173 -0.02985
0.05084 -0.51061 -0.0328
0.05101 -0.50938 -0.03569
0.05112 -0.50825 -0.03862
0.05094 -0.50717 -0.04158
0.05105 -0.50668 -0.0447
0.05105 -0.5059 -0.04773
0.05084 -0.50547 -0.05083
0.0506 -0.50511 -0.05393
0.05047 -0.50448 -0.05699
0.04967 -0.50324 -0.0598
0.04897 -0.50218 -0.06267
0.04833 -0.50122 -0.06553
0.0485 -0.5008 -0.06891
0.04763 -0.4985 -0.07145
0.05392 -0.48946 0.03489
0.05344 -0.49088 0.03214
0.05274 -0.49235 0.02946
0.05207 -0.49393 0.02683
0.0516 -0.4954 0.02409
0.05135 -0.49676 0.02128
0.05124 -0.49795 0.01837
0.05151 -0.49853 0.01529
0.05205 -0.49948 0.01233
0.05244 -0.50068 0.00943
0.05296 -0.5025 0.00689
0.05352 -0.50374 0.00406
0.05408 -0.50481 0.00118
0.05451 -0.50584 -0.00174
0.05431 -0.50675 -0.00473
0.05456 -0.50768 -0.00772
0.05526 -0.50867 -0.01061
0.05587 -0.50925 -0.01362
0.05585 -0.5098 -0.01668
0.05536 -0.51043 -0.01968
0.05471 -0.51109 -0.02268
0.05418 -0.51154 -0.02575
0.05397 -0.51127 -0.02889
0.05409 -0.51018 -0.03184
0.05428 -0.50905 -0.03475
0.05437 -0.50786 -0.03765
0.05419 -0.50681 -0.04061
0.05422 -0.50607 -0.04366
0.05406 -0.50483 -0.04653
0.0536 -0.50396 -0.04954
0.0535 -0.50389 -0.05272
0.0531 -0.50288 -0.05564
0.05199 -0.5014 -0.05819
0.05061 -0.49992 -0.06064
0.04976 -0.49877 -0.06352
0.05006 -0.49827 -0.06673
0.04995 -0.49668 -0.06959
0.05661 -0.49011 0.03279
0.05712 -0.48895 0.0357
0.0558 -0.49101 0.02988
0.05511 -0.49251 0.02719
0.05472 -0.49421 0.02457
0.05448 -0.49555 0.02175
0.05442 -0.49691 0.01893
0.05479 -0.49797 0.016
0.05532 -0.49887 0.01305
0.05572 -0.50001 0.01013
0.05619 -0.50154 0.00743
0.05679 -0.50302 0.00473
0.05738 -0.50422 0.0019
0.05783 -0.5055 -0.00089
0.05764 -0.5065 -0.00383
0.05788 -0.5074 -0.00682
0.05856 -0.50823 -0.00975
0.05917 -0.50885 -0.01274
0.05914 -0.50935 -0.0158
0.05864 -0.50989 -0.01881
0.05796 -0.51042 -0.02183
0.0574 -0.51078 -0.0249
0.05724 -0.51071 -0.02804
0.05739 -0.5098 -0.03102
0.05758 -0.50872 -0.03393
0.05767 -0.50752 -0.03683
0.05752 -0.50667 -0.03985
0.05752 -0.5059 -0.04288
0.05732 -0.50439 -0.04559
0.05667 -0.50303 -0.04834
0.05621 -0.50237 -0.0514
0.05575 -0.50133 -0.05426
0.05455 -0.49979 -0.0567
0.05316 -0.49822 -0.05905
0.05184 -0.49666 -0.06161
0.05168 -0.49599 -0.06477
0.05185 -0.49469 -0.06765
0.05145 -0.49218 -0.0695
0.05988 -0.48948 0.03299
0.06037 -0.48815 0.0358
0.05906 -0.49017 0.03002
0.0583 -0.4913 0.02714
0.05791 -0.49304 0.02452
0.05776 -0.49469 0.02187
0.05773 -0.4962 0.01913
0.05813 -0.49753 0.01633
0.05869 -0.4986 0.01344
0.05911 -0.49976 0.01056
0.05957 -0.50105 0.00773
0.06018 -0.50255 0.00502
0.06077 -0.50427 0.00247
0.06113 -0.50607 -7e-05
0.06097 -0.50695 -0.00306
0.06123 -0.5076 -0.00609
0.06193 -0.50813 -0.00909
0.06253 -0.50866 -0.01211
0.06251 -0.50916 -0.01519
0.06201 -0.50959 -0.01822
0.06131 -0.51001 -0.02125
0.06073 -0.51019 -0.02433
0.06059 -0.51032 -0.02745
0.06078 -0.50982 -0.03051
0.06094 -0.50851 -0.03335
0.06104 -0.50739 -0.0363
0.06089 -0.50656 -0.03932
0.06087 -0.50596 -0.04239
0.06064 -0.50408 -0.04485
0.05987 -0.5023 -0.04733
0.05918 -0.50121 -0.05023
0.05859 -0.50002 -0.05301
0.05735 -0.49839 -0.05539
0.05597 -0.49676 -0.05772
0.05494 -0.49551 -0.06042
0.05425 -0.49433 -0.06324
0.05389 -0.4927 -0.06584
0.054 -0.49057 -0.06811
0.06316 -0.48888 0.03304
0.0636 -0.48738 0.03574
0.06243 -0.49002 0.03021
0.06171 -0.49104 0.02731
0.0613 -0.49264 0.02463
0.06113 -0.49427 0.02195
0.06111 -0.49583 0.01925
0.06152 -0.49726 0.01649
0.06208 -0.49863 0.01374
0.0625 -0.49992 0.01092
0.06297 -0.50131 0.00814
0.06356 -0.50294 0.00552
0.06412 -0.50478 0.00304
0.06449 -0.50652 0.00046
0.06427 -0.50781 -0.00243
0.0646 -0.50793 -0.00558
0.06532 -0.50816 -0.00862
0.06592 -0.50844 -0.01168
0.0659 -0.50883 -0.01477
0.06538 -0.50917 -0.01782
0.06467 -0.50946 -0.02086
0.06414 -0.5101 -0.02389
0.06399 -0.51063 -0.02701
0.06416 -0.50976 -0.03004
0.06434 -0.50864 -0.03295
0.06444 -0.50743 -0.03587
0.06427 -0.50695 -0.03899
0.06423 -0.50635 -0.04206
0.06402 -0.50446 -0.04454
0.06322 -0.50227 -0.04664
0.06238 -0.5007 -0.04924
0.06156 -0.49905 -0.05172
0.06031 -0.49732 -0.05405
0.05913 -0.49598 -0.05665
0.05803 -0.49466 -0.05923
0.05718 -0.49327 -0.06188
0.05671 -0.4915 -0.0644
0.05679 -0.48939 -0.0667
0.05723 -0.48709 -0.06876
0.06354 -0.4858 0.03845
0.0669 -0.48702 0.03558
0.06684 -0.48552 0.03833
0.06648 -0.48869 0.03296
0.06578 -0.48999 0.03019
0.06509 -0.49123 0.02739
0.06468 -0.49278 0.0247
0.06452 -0.49443 0.02204
0.06451 -0.49599 0.01933
0.06492 -0.49737 0.01656
0.06547 -0.49888 0.01386
0.06587 -0.50032 0.01111
0.06632 -0.50192 0.00846
0.06692 -0.50344 0.00578
0.06749 -0.50524 0.00329
0.06789 -0.50711 0.00075
0.06773 -0.50777 -0.00236
0.06803 -0.50793 -0.00548
0.06874 -0.50797 -0.00853
0.06932 -0.50806 -0.01159
0.06928 -0.50827 -0.01471
0.06874 -0.50852 -0.01777
0.06805 -0.50893 -0.02081
0.06752 -0.50962 -0.02382
0.06753 -0.51067 -0.0269
0.06755 -0.50954 -0.02996
0.06774 -0.50873 -0.03297
0.06782 -0.50775 -0.03596
0.06764 -0.50747 -0.03909
0.06764 -0.50669 -0.04221
0.06742 -0.50455 -0.0446
0.06662 -0.50225 -0.04657
0.06561 -0.50002 -0.04853
0.0647 -0.49812 -0.05088
0.06361 -0.49667 -0.05347
0.06239 -0.49529 -0.056
0.06128 -0.49399 -0.05857
0.06035 -0.49237 -0.06105
0.05991 -0.49068 -0.06363
0.06 -0.48871 -0.06603
0.06052 -0.48671 -0.06838
0.07014 -0.48528 0.038
0.07021 -0.4869 0.03533
0.0698 -0.48849 0.03266
0.06912 -0.49001 0.03001
0.06844 -0.49153 0.02737
0.06804 -0.4931 0.02469
0.06789 -0.49473 0.02203
0.06788 -0.49639 0.01937
0.06829 -0.49772 0.01657
0.06885 -0.49911 0.01383
0.06925 -0.50057 0.01109
0.06971 -0.50208 0.00838
0.07031 -0.50373 0.0058
0.07091 -0.50552 0.00329
0.07133 -0.50682 0.00045
0.07111 -0.50721 -0.00267
0.0714 -0.50746 -0.00577
0.07211 -0.50746 -0.00882
0.07267 -0.50742 -0.01187
0.07256 -0.50741 -0.01499
0.07199 -0.50754 -0.01806
0.07128 -0.50787 -0.02109
0.07061 -0.50824 -0.02414
0.07053 -0.50879 -0.02721
0.07089 -0.50878 -0.03032
0.07115 -0.50835 -0.03342
0.07124 -0.50781 -0.03651
0.07111 -0.50742 -0.03966
0.07101 -0.50602 -0.04259
0.07072 -0.50386 -0.04495
[...]
CELL_DATA 2527
SCALARS brightness_temperature float
LOOKUP_TABLE default
POINT_DATA 1342
CELL_DATA 2527
SCALARS emission_angle float
LOOKUP_TABLE default
POINT_DATA 1342
CELL_DATA 2527
SCALARS incidence_angle float
LOOKUP_TABLE default
POINT_DATA 1342
CELL_DATA 2527
SCALARS phase_angle float
LOOKUP_TABLE default
POINT_DATA 1342
CELL_DATA 2527
SCALARS local_solar_time float
LOOKUP_TABLE default
POINT_DATA 1342
CELL_DATA 2527
SCALARS local_solar_time_normal_vector float
LOOKUP_TABLE default
CELL_DATA 2527
SCALARS pixel_x float
LOOKUP_TABLE default
POINT_DATA 1342
CELL_DATA 2527
SCALARS pixel_y float
LOOKUP_TABLE default
POINT_DATA 1342
CELL_DATA 2527
SCALARS longitude float
LOOKUP_TABLE default
POINT_DATA 1342
CELL_DATA 2527
SCALARS latitude float
LOOKUP_TABLE default
