# vtk DataFile Version 3.0
SHAPE_sfm_50k_v20200323
ASCII
DATASET POLYDATA
POINTS 1358 float
-0.29758 0.28477 0.19636
-0.29997 0.2839 0.19513
-0.29861 0.28268 0.1967
-0.2991 0.28611 0.19503
-0.30136 0.28521 0.19365
-0.30026 0.2873 0.19326
-0.30245 0.28628 0.19176
-0.30136 0.28837 0.1914
-0.30367 0.28743 0.19003
-0.30251 0.28949 0.18961
-0.30489 0.28855 0.18828
-0.30363 0.29051 0.18773
-0.30606 0.28975 0.18656
-0.30481 0.29173 0.18602
-0.30738 0.29099 0.18498
-0.30612 0.29296 0.18442
-0.30868 0.29217 0.18333
-0.30748 0.29421 0.18287
-0.31012 0.2934 0.18185
-0.30907 0.29558 0.18171
-0.31174 0.29476 0.18063
-0.31073 0.29701 0.18064
-0.31331 0.29598 0.17906
-0.3124 0.29834 0.17918
-0.3138 0.29653 0.1766
-0.31262 0.29875 0.17663
-0.31369 0.29671 0.17415
-0.31238 0.29881 0.17419
-0.31398 0.29714 0.17181
-0.3125 0.29914 0.17182
-0.31431 0.29758 0.16946
-0.31262 0.29942 0.16943
-0.31448 0.29785 0.16707
-0.31282 0.29973 0.16705
-0.31479 0.2982 0.16471
-0.31319 0.30015 0.16471
-0.31504 0.29853 0.16233
-0.31345 0.30051 0.16234
-0.31538 0.29891 0.15998
-0.31373 0.30085 0.15997
-0.31599 0.29952 0.15773
-0.3143 0.30144 0.1577
-0.31664 0.30012 0.1555
-0.31487 0.30199 0.15543
-0.31737 0.30085 0.15332
-0.31554 0.30268 0.15322
-0.31822 0.30167 0.15122
-0.31637 0.30349 0.15111
-0.31912 0.30251 0.14916
-0.3173 0.30439 0.14908
-0.32022 0.30351 0.14726
-0.31836 0.30536 0.14714
-0.32136 0.30457 0.14542
-0.31947 0.30642 0.14529
-0.32251 0.30562 0.14358
-0.32066 0.30751 0.1435
-0.32373 0.30672 0.14182
-0.3219 0.30862 0.14175
-0.32324 0.30979 0.14013
-0.32505 0.30786 0.14017
-0.32631 0.30903 0.13848
-0.32452 0.31098 0.13847
-0.32581 0.31219 0.13682
-0.32759 0.31021 0.13682
-0.32717 0.31343 0.13527
-0.32897 0.31147 0.13529
-0.32857 0.31465 0.13374
-0.33036 0.31267 0.13373
-0.32998 0.31593 0.13225
-0.3318 0.31397 0.1323
-0.33149 0.31725 0.13092
-0.33326 0.31524 0.13086
-0.33298 0.31854 0.12951
-0.33465 0.31645 0.12931
-0.33423 0.31958 0.12772
-0.33594 0.31751 0.12757
-0.33537 0.32071 0.12591
-0.33712 0.31866 0.1258
-0.33631 0.32166 0.1239
-0.33802 0.31957 0.12374
-0.33723 0.3226 0.12188
-0.33902 0.32057 0.12178
-0.33826 0.32355 0.1199
-0.34001 0.32147 0.11977
-0.30064 0.28162 0.19526
-0.29945 0.28048 0.197
-0.30207 0.28293 0.19383
-0.30344 0.28415 0.19227
-0.30479 0.28541 0.19071
-0.30609 0.28662 0.18908
-0.30725 0.2878 0.18733
-0.30854 0.28899 0.18568
-0.3099 0.29024 0.18412
-0.31117 0.29128 0.18235
-0.3124 0.29243 0.18061
-0.31349 0.29351 0.17873
-0.31437 0.29412 0.17655
-0.31505 0.29466 0.17429
-0.31549 0.29518 0.17196
-0.31582 0.29558 0.1696
-0.31601 0.29586 0.16721
-0.3164 0.29626 0.16487
-0.31665 0.29658 0.1625
-0.31708 0.29702 0.16017
-0.31778 0.2977 0.15797
-0.31851 0.29836 0.15577
-0.31938 0.29924 0.1537
-0.32018 0.29998 0.15156
-0.32105 0.30077 0.14946
-0.32214 0.30174 0.14754
-0.32322 0.30271 0.14562
-0.32437 0.30375 0.14378
-0.32559 0.30485 0.14202
-0.32687 0.30595 0.14031
-0.32818 0.30717 0.1387
-0.32948 0.30836 0.13706
-0.33081 0.30956 0.13545
-0.33224 0.3108 0.13395
-0.33369 0.3121 0.13253
-0.33511 0.31332 0.13101
-0.33642 0.31444 0.12932
-0.33768 0.31547 0.12753
-0.33881 0.31657 0.1257
-0.33976 0.31751 0.12368
-0.34071 0.31845 0.12168
-0.30137 0.27938 0.19506
-0.29988 0.27818 0.19655
-0.30287 0.28069 0.19369
-0.30443 0.28196 0.19236
-0.30599 0.28332 0.19108
-0.30735 0.28456 0.18948
-0.3085 0.28577 0.18773
-0.30982 0.28699 0.18613
-0.31117 0.28822 0.18453
-0.3125 0.28932 0.18281
-0.31353 0.29032 0.18085
-0.3145 0.29135 0.17888
-0.31553 0.29199 0.17678
-0.31656 0.29275 0.1747
-0.31701 0.29325 0.17234
-0.31712 0.29346 0.16992
-0.31771 0.29405 0.16765
-0.31805 0.29438 0.16528
-0.31852 0.29493 0.16297
-0.31899 0.29539 0.16065
-0.31965 0.296 0.15841
-0.32039 0.29663 0.15621
-0.32128 0.29751 0.15413
-0.32199 0.29813 0.15191
-0.32298 0.29904 0.14991
-0.32405 0.29996 0.14795
-0.32515 0.30097 0.14606
-0.32624 0.30191 0.14412
-0.32744 0.30297 0.14231
-0.32882 0.30421 0.14076
-0.3301 0.30539 0.13909
-0.33145 0.30664 0.13752
-0.33277 0.3078 0.13586
-0.3342 0.30904 0.13436
-0.33561 0.31026 0.13282
-0.33698 0.3114 0.13118
-0.33823 0.31247 0.12941
-0.3395 0.31349 0.12761
-0.34058 0.31455 0.12572
-0.34153 0.31546 0.12368
-0.34247 0.31638 0.12164
-0.29864 0.27708 0.19831
-0.30066 0.27596 0.1966
-0.30217 0.27716 0.19512
-0.3037 0.27847 0.19379
-0.30525 0.27972 0.19239
-0.30668 0.28101 0.19091
-0.30795 0.2822 0.1892
-0.30942 0.28353 0.18781
-0.31097 0.28491 0.18655
-0.31245 0.28625 0.18514
-0.31375 0.28731 0.18334
-0.31483 0.28836 0.18142
-0.31588 0.28948 0.17953
-0.31695 0.29011 0.17742
-0.31791 0.29074 0.17526
-0.31847 0.29132 0.17294
-0.31883 0.29174 0.17057
-0.3193 0.29221 0.16825
-0.31977 0.29263 0.16591
-0.32029 0.29321 0.16361
-0.32085 0.29377 0.16132
-0.32151 0.29436 0.15907
-0.32226 0.29497 0.15685
-0.32293 0.29554 0.15459
-0.32371 0.29623 0.15241
-0.32468 0.29709 0.15036
-0.32585 0.29812 0.14851
-0.32699 0.29916 0.14665
-0.3281 0.30013 0.14472
-0.3293 0.30118 0.1429
-0.3306 0.30228 0.14118
-0.33195 0.30356 0.13962
-0.3333 0.30479 0.13802
-0.33459 0.30591 0.1363
-0.33598 0.30707 0.1347
-0.33739 0.30829 0.13315
-0.33878 0.30944 0.1315
-0.34001 0.31047 0.12967
-0.34127 0.31148 0.12786
-0.34238 0.31254 0.12595
-0.34315 0.3133 0.12377
-0.34397 0.31412 0.12164
-0.29936 0.27487 0.19832
-0.3015 0.2738 0.19703
-0.30008 0.27268 0.19864
-0.303 0.27498 0.19552
-0.30445 0.27623 0.19402
-0.30598 0.27746 0.19258
-0.30742 0.27874 0.1911
-0.30872 0.27994 0.18942
-0.3102 0.28127 0.18803
-0.31186 0.28267 0.18694
-0.3135 0.28411 0.18578
-0.31501 0.28534 0.18421
-0.31596 0.2863 0.18213
-0.31706 0.28745 0.18028
-0.31827 0.28818 0.17827
-0.31921 0.2888 0.17608
-0.31982 0.2894 0.17379
-0.32038 0.28999 0.17149
-0.32093 0.29053 0.16918
-0.32151 0.29107 0.16687
-0.32191 0.29148 0.16451
-0.32252 0.29208 0.16225
-0.32327 0.29277 0.16005
-0.32409 0.29345 0.15786
-0.32471 0.29392 0.15555
-0.32549 0.29457 0.15334
-0.32632 0.29523 0.15118
-0.32743 0.29613 0.14921
-0.32861 0.2972 0.14738
-0.32975 0.29822 0.14549
-0.331 0.29933 0.14372
-0.33231 0.30044 0.14201
-0.3336 0.30162 0.14031
-0.33485 0.30269 0.13852
-0.33607 0.30373 0.1367
-0.33747 0.3049 0.13509
-0.33888 0.3061 0.13352
-0.34033 0.30731 0.13197
-0.34159 0.30836 0.13015
-0.34283 0.30932 0.12828
-0.34388 0.31032 0.12632
-0.34476 0.31118 0.1242
-0.34561 0.31202 0.12209
-0.30195 0.27156 0.19754
-0.30058 0.27048 0.19923
-0.30349 0.27273 0.19606
-0.30502 0.274 0.19465
-0.30642 0.27515 0.193
-0.30787 0.27642 0.1915
-0.30924 0.27764 0.18989
-0.31067 0.27894 0.18843
-0.31222 0.28028 0.18712
-0.31387 0.28166 0.18595
-0.31548 0.28288 0.18454
-0.3169 0.28414 0.18297
-0.31798 0.28529 0.18107
-0.31931 0.28609 0.17916
-0.32034 0.28676 0.17702
-0.32106 0.28747 0.17478
-0.32173 0.28814 0.17253
-0.32245 0.28884 0.1703
-0.32314 0.28951 0.16804
-0.3235 0.28984 0.16563
-0.32412 0.29043 0.16337
-0.32493 0.29116 0.1612
-0.32574 0.2918 0.15899
-0.32659 0.2926 0.15682
-0.32721 0.293 0.15449
-0.32803 0.29359 0.15228
-0.32913 0.29444 0.15029
-0.33028 0.29545 0.1484
-0.33146 0.2965 0.14654
-0.3327 0.2976 0.14476
-0.33399 0.29865 0.14299
-0.33528 0.29982 0.14128
-0.33649 0.30082 0.1394
-0.3376 0.30167 0.1374
-0.33891 0.30273 0.13564
-0.3403 0.3039 0.13402
-0.34176 0.3051 0.13247
-0.34303 0.30614 0.13064
-0.34413 0.30698 0.12862
-0.34522 0.30801 0.12669
-0.3463 0.30902 0.12475
-0.30254 0.26936 0.19811
-0.30123 0.26835 0.19991
-0.30398 0.27045 0.19648
-0.30557 0.27173 0.19514
-0.30714 0.27294 0.19368
-0.3084 0.27411 0.19191
-0.30965 0.27529 0.19018
-0.31102 0.27656 0.18862
-0.31253 0.27789 0.18723
-0.31394 0.27922 0.18574
-0.3155 0.28042 0.1843
-0.31719 0.28165 0.18302
-0.31882 0.28297 0.18169
-0.32013 0.28377 0.1797
-0.32119 0.28446 0.17759
-0.32223 0.28538 0.17558
-0.32313 0.28626 0.17347
-0.32396 0.28706 0.1713
-0.32474 0.28782 0.16908
-0.32522 0.2883 0.16672
-0.32577 0.28878 0.1644
-0.32658 0.28948 0.16222
-0.32741 0.2901 0.16
-0.32822 0.29081 0.15781
-0.32901 0.29146 0.15559
-0.32991 0.2922 0.15346
-0.331 0.29298 0.15143
-0.33211 0.29386 0.14945
-0.33332 0.29497 0.14763
-0.33453 0.29596 0.14575
-0.33577 0.29692 0.14389
-0.33706 0.29807 0.14217
-0.33841 0.29933 0.14053
-0.33946 0.30005 0.1384
-0.34067 0.30092 0.13646
-0.34197 0.30195 0.13468
-0.34338 0.30306 0.13302
-0.34463 0.30407 0.13116
-0.34575 0.30491 0.12914
-0.34674 0.30583 0.12711
-0.34771 0.30672 0.12505
-0.30454 0.26826 0.19715
-0.30318 0.26723 0.1989
-0.30595 0.26941 0.19551
-0.30741 0.27055 0.19392
-0.30878 0.27177 0.19228
-0.3101 0.27296 0.19061
-0.31134 0.27419 0.1889
-0.31285 0.27551 0.18748
-0.31423 0.27684 0.18595
-0.31564 0.278 0.18432
-0.31725 0.2792 0.18294
-0.31886 0.28045 0.18158
-0.32043 0.28129 0.17988
-0.32192 0.28212 0.17811
-0.32323 0.28318 0.17631
-0.32433 0.28419 0.17434
-0.32527 0.28508 0.17225
-0.32617 0.28593 0.17011
-0.32675 0.28655 0.16779
-0.3274 0.28714 0.16551
-0.32824 0.28787 0.16335
-0.32913 0.28856 0.16117
-0.32997 0.28931 0.15899
-0.33081 0.29004 0.15682
-0.33174 0.29078 0.15469
-0.33285 0.29159 0.15268
-0.334 0.29251 0.15073
-0.33513 0.2934 0.14875
-0.33633 0.29436 0.14684
-0.33757 0.29532 0.14498
-0.33883 0.29637 0.14316
-0.34007 0.29738 0.14131
-0.34129 0.29842 0.13944
-0.34251 0.2993 0.13751
-0.34376 0.30018 0.13561
-0.34511 0.30118 0.13382
-0.34629 0.30207 0.13185
-0.34737 0.30284 0.12977
-0.34826 0.30365 0.12763
-0.34908 0.30443 0.12547
-0.30514 0.26604 0.19774
-0.30383 0.26507 0.19958
-0.30653 0.26716 0.19606
-0.30783 0.26824 0.19428
-0.30914 0.26942 0.19258
-0.31047 0.27061 0.1909
-0.31176 0.27185 0.18922
-0.31305 0.27311 0.18756
-0.31444 0.27443 0.18602
-0.31596 0.2756 0.18451
-0.31757 0.27679 0.1831
-0.31913 0.27803 0.18167
-0.32087 0.27888 0.18016
-0.32254 0.27975 0.17857
-0.32398 0.28083 0.17687
-0.32526 0.28192 0.17505
-0.32637 0.28291 0.17307
-0.32728 0.28377 0.17093
-0.32819 0.28469 0.16884
-0.32904 0.28554 0.16669
-0.32988 0.28625 0.16451
-0.33089 0.28712 0.16244
-0.33175 0.28787 0.16026
-0.33261 0.28861 0.15809
-0.33357 0.2894 0.15599
-0.3347 0.29022 0.15398
-0.33583 0.29108 0.15199
-0.33698 0.29198 0.15001
[...]
CELL_DATA 2551
SCALARS brightness_temperature float
LOOKUP_TABLE default
POINT_DATA 1358
CELL_DATA 2551
SCALARS emission_angle float
LOOKUP_TABLE default
POINT_DATA 1358
CELL_DATA 2551
SCALARS incidence_angle float
LOOKUP_TABLE default
POINT_DATA 1358
CELL_DATA 2551
SCALARS phase_angle float
LOOKUP_TABLE default
POINT_DATA 1358
CELL_DATA 2551
SCALARS local_solar_time float
LOOKUP_TABLE default
POINT_DATA 1358
CELL_DATA 2551
SCALARS local_solar_time_normal_vector float
LOOKUP_TABLE default
CELL_DATA 2551
SCALARS pixel_x float
LOOKUP_TABLE default
POINT_DATA 1358
CELL_DATA 2551
SCALARS pixel_y float
LOOKUP_TABLE default
POINT_DATA 1358
CELL_DATA 2551
SCALARS longitude float
LOOKUP_TABLE default
POINT_DATA 1358
CELL_DATA 2551
SCALARS latitude float
LOOKUP_TABLE default
