# vtk DataFile Version 3.0
SHAPE_sfm_50k_v20200323
ASCII
DATASET POLYDATA
POINTS 468 float
-0.06323 0.41997 -0.15592
-0.06129 0.41999 -0.15835
-0.06406 0.41922 -0.15882
-0.06486 0.41997 -0.15409
-0.06593 0.41952 -0.15691
-0.06679 0.41933 -0.15995
-0.06654 0.42093 -0.14947
-0.06425 0.42054 -0.15119
-0.06691 0.42025 -0.15247
-0.06749 0.41981 -0.15541
-0.06856 0.41942 -0.15826
-0.06948 0.41916 -0.16142
-0.06889 0.42111 -0.14743
-0.06929 0.4204 -0.15047
-0.06967 0.42 -0.15355
-0.07025 0.41958 -0.15655
-0.07133 0.41912 -0.1595
-0.07199 0.41757 -0.16225
-0.06936 0.41738 -0.16412
-0.07193 0.41641 -0.16511
-0.07244 0.42267 -0.14237
-0.069 0.42214 -0.14447
-0.07183 0.4217 -0.14531
-0.07171 0.42075 -0.14831
-0.0721 0.41994 -0.15135
-0.07247 0.41939 -0.15444
-0.07298 0.41869 -0.15742
-0.07388 0.41763 -0.16021
-0.07461 0.41651 -0.16304
-0.07455 0.41537 -0.16592
-0.0769 0.42383 -0.13744
-0.07312 0.42332 -0.13934
-0.07594 0.42293 -0.14031
-0.07522 0.42213 -0.14332
-0.07463 0.42138 -0.14633
-0.07449 0.42036 -0.14933
-0.07484 0.41934 -0.15235
-0.07515 0.41855 -0.15539
-0.07562 0.41793 -0.15843
-0.07653 0.41701 -0.16127
-0.07723 0.41551 -0.16393
-0.0772 0.41451 -0.16684
-0.08042 0.42508 -0.13272
-0.07746 0.42468 -0.1345
-0.08014 0.42415 -0.13573
-0.07957 0.4234 -0.13872
-0.0786 0.42236 -0.14155
-0.07791 0.42176 -0.14459
-0.07731 0.4208 -0.14754
-0.07717 0.41978 -0.15054
-0.07751 0.41877 -0.15354
-0.0778 0.41809 -0.15661
-0.07825 0.41778 -0.15978
-0.07915 0.41626 -0.16237
-0.07987 0.4149 -0.16508
-0.07984 0.41407 -0.16806
-0.08355 0.42664 -0.12774
-0.08069 0.42603 -0.12971
-0.0835 0.42563 -0.13073
-0.08323 0.42471 -0.13374
-0.08295 0.42369 -0.13671
-0.08235 0.42266 -0.13963
-0.08139 0.42185 -0.14251
-0.0807 0.42107 -0.14547
-0.08011 0.42027 -0.14846
-0.07997 0.41941 -0.15149
-0.08031 0.41864 -0.15453
-0.08061 0.41818 -0.15765
-0.08106 0.41743 -0.16074
-0.08191 0.41558 -0.16319
-0.08264 0.41467 -0.16608
-0.08259 0.41385 -0.16907
-0.07943 0.41347 -0.17115
-0.08213 0.41281 -0.17203
-0.0865 0.42788 -0.12505
-0.08655 0.42669 -0.12798
-0.0865 0.42547 -0.13089
-0.08622 0.4246 -0.13391
-0.08592 0.42339 -0.1368
-0.08531 0.42226 -0.13969
-0.08436 0.4216 -0.14257
-0.08366 0.42075 -0.14549
-0.08308 0.42001 -0.14851
-0.08295 0.41924 -0.15155
-0.08327 0.41834 -0.15455
-0.08353 0.41755 -0.15758
-0.08395 0.41666 -0.16058
-0.08485 0.41566 -0.1634
-0.08558 0.41461 -0.16626
-0.08549 0.41355 -0.16921
-0.08503 0.41275 -0.17221
-0.08674 0.42904 -0.12213
-0.08942 0.42833 -0.12435
-0.08967 0.42933 -0.12138
-0.08946 0.42708 -0.12727
-0.0894 0.4259 -0.1302
-0.0891 0.42467 -0.13305
-0.08878 0.42349 -0.13595
-0.08817 0.42262 -0.13891
-0.08721 0.4218 -0.14175
-0.08651 0.42077 -0.14459
-0.08589 0.41976 -0.14753
-0.08575 0.41896 -0.15055
-0.08607 0.41812 -0.15355
-0.08628 0.41728 -0.15655
-0.0867 0.41645 -0.15956
-0.08765 0.41561 -0.16246
-0.08834 0.41435 -0.1653
-0.08823 0.4133 -0.16825
-0.08778 0.41278 -0.17128
-0.08752 0.41202 -0.17421
-0.08999 0.4303 -0.1184
-0.09244 0.42948 -0.12014
-0.09277 0.4307 -0.11726
-0.09218 0.42854 -0.12311
-0.09222 0.42741 -0.12606
-0.09214 0.42618 -0.12897
-0.09182 0.42514 -0.13188
-0.0915 0.42399 -0.13479
-0.09089 0.42305 -0.13773
-0.08993 0.42229 -0.1406
-0.0892 0.421 -0.14332
-0.08848 0.41952 -0.14604
-0.08828 0.41854 -0.149
-0.08855 0.41763 -0.15197
-0.0888 0.41698 -0.155
-0.08924 0.41635 -0.15805
-0.09017 0.41543 -0.16096
-0.09086 0.41416 -0.16381
-0.09073 0.41306 -0.16673
-0.09026 0.41259 -0.16977
-0.09 0.41222 -0.17275
-0.08969 0.41152 -0.17582
-0.0932 0.43192 -0.11439
-0.09549 0.43152 -0.11616
-0.09597 0.43253 -0.11322
-0.09516 0.42984 -0.11882
-0.09488 0.4289 -0.12178
-0.09489 0.42762 -0.12466
-0.09481 0.42668 -0.12766
-0.09449 0.42566 -0.13058
-0.09415 0.42456 -0.13349
-0.09354 0.42358 -0.13643
-0.09259 0.42259 -0.13922
-0.09181 0.4212 -0.14185
-0.09108 0.41973 -0.14455
-0.09071 0.41827 -0.14726
-0.09079 0.41687 -0.15008
-0.09108 0.41638 -0.15318
-0.0916 0.41612 -0.15627
-0.09256 0.41567 -0.15926
-0.09328 0.41469 -0.16222
-0.09313 0.41324 -0.16502
-0.09254 0.41224 -0.16794
-0.0923 0.41217 -0.17097
-0.09196 0.41195 -0.17411
-0.0919 0.41071 -0.17699
-0.09662 0.43366 -0.11042
-0.09874 0.43338 -0.11228
-0.09934 0.43483 -0.1096
-0.09829 0.43197 -0.11501
-0.09793 0.43041 -0.11771
-0.09763 0.42906 -0.12049
-0.09763 0.42799 -0.12343
-0.09753 0.42723 -0.12648
-0.09719 0.42634 -0.12943
-0.09684 0.42527 -0.13235
-0.0962 0.42436 -0.1353
-0.09527 0.42301 -0.13795
-0.09446 0.42149 -0.14047
-0.09369 0.4199 -0.14308
-0.09329 0.41835 -0.14572
-0.0933 0.41671 -0.1484
-0.09349 0.41597 -0.15147
-0.09399 0.41573 -0.15456
-0.09498 0.41573 -0.15756
-0.0957 0.41515 -0.16061
-0.09555 0.41426 -0.16364
-0.09498 0.41255 -0.16628
-0.09468 0.4121 -0.16928
-0.09431 0.41238 -0.17246
-0.09427 0.41182 -0.17565
-0.0943 0.40981 -0.1782
-0.10144 0.43477 -0.11162
-0.10106 0.43272 -0.11402
-0.10069 0.43108 -0.11664
-0.10039 0.42966 -0.11938
-0.10038 0.42858 -0.12231
-0.10026 0.42778 -0.12533
-0.09991 0.42698 -0.1283
-0.09952 0.42614 -0.13129
-0.09886 0.42537 -0.13429
-0.09794 0.42393 -0.13692
-0.09715 0.42213 -0.13928
-0.09635 0.42035 -0.14174
-0.09591 0.41867 -0.14429
-0.09592 0.41685 -0.14687
-0.09606 0.41585 -0.14989
-0.09653 0.41564 -0.15302
-0.09748 0.41589 -0.15601
-0.09817 0.4157 -0.15909
-0.09801 0.41461 -0.16206
-0.09739 0.41357 -0.16491
-0.09712 0.41243 -0.16771
-0.09671 0.41226 -0.17083
-0.09668 0.41193 -0.17398
-0.09668 0.41018 -0.17665
-0.09661 0.40839 -0.17925
-0.10388 0.43366 -0.11333
-0.10352 0.43174 -0.11577
-0.10321 0.43032 -0.1185
-0.1032 0.42918 -0.12142
-0.10308 0.4283 -0.12441
-0.10272 0.42747 -0.12735
-0.10234 0.42635 -0.13024
-0.10169 0.42555 -0.13321
-0.10074 0.42451 -0.13599
-0.09994 0.42283 -0.13842
-0.09914 0.42108 -0.14088
-0.0987 0.41937 -0.14339
-0.09873 0.41758 -0.14595
-0.09885 0.41631 -0.14883
-0.09929 0.41585 -0.15193
-0.10021 0.41584 -0.15491
-0.10089 0.41566 -0.15795
-0.10073 0.41518 -0.16106
-0.10005 0.41414 -0.16388
-0.09978 0.41303 -0.16669
-0.09936 0.41233 -0.16969
-0.09927 0.41165 -0.17274
-0.0993 0.41018 -0.17551
-0.09926 0.40876 -0.17833
-0.09863 0.4071 -0.18099
-0.10625 0.43272 -0.11486
-0.10592 0.43138 -0.11763
-0.10581 0.43045 -0.12062
-0.1058 0.42917 -0.12346
-0.10544 0.42823 -0.12637
-0.10509 0.42689 -0.12916
-0.10443 0.42579 -0.13202
-0.10348 0.42473 -0.13476
-0.10266 0.42365 -0.13748
-0.10183 0.42215 -0.14009
-0.10139 0.42038 -0.14255
-0.10141 0.41865 -0.14513
-0.10155 0.41727 -0.14792
-0.10204 0.41639 -0.1509
-0.10298 0.41592 -0.15385
-0.10362 0.41537 -0.15686
-0.10344 0.41486 -0.15992
-0.10277 0.41432 -0.16286
-0.10247 0.41357 -0.16575
-0.10206 0.41255 -0.16866
-0.10189 0.41147 -0.17156
-0.102 0.41065 -0.1746
-0.10192 0.40962 -0.17764
-0.10127 0.40785 -0.18031
-0.10033 0.40583 -0.18248
-0.10843 0.43273 -0.1166
-0.10823 0.43196 -0.11963
-0.10815 0.43081 -0.12252
-0.10788 0.42961 -0.12534
-0.10759 0.42811 -0.12805
-0.10703 0.42636 -0.13061
-0.10607 0.42537 -0.1334
-0.10524 0.42448 -0.1362
-0.10431 0.4235 -0.13905
-0.10383 0.42183 -0.14159
-0.10388 0.4199 -0.14403
-0.10403 0.41845 -0.14677
-0.10457 0.41732 -0.14965
-0.10556 0.41656 -0.15255
-0.10622 0.41576 -0.15551
-0.10601 0.41501 -0.15851
-0.1053 0.41434 -0.16142
-0.10495 0.41349 -0.16426
-0.1045 0.41243 -0.16714
-0.10434 0.41139 -0.17007
-0.10438 0.41026 -0.17299
-0.10461 0.41 -0.17628
-0.10404 0.40895 -0.17947
-0.10297 0.40689 -0.18179
-0.10206 0.40454 -0.18365
-0.11061 0.43346 -0.11852
-0.11036 0.43261 -0.1215
-0.11 0.43155 -0.1244
-0.10977 0.42993 -0.12711
-0.10943 0.4276 -0.12926
-0.10856 0.42593 -0.13178
-0.1077 0.42517 -0.13463
-0.10676 0.42429 -0.13747
-0.10616 0.42314 -0.14026
-0.10611 0.42154 -0.1429
-0.10631 0.41987 -0.14551
-0.10689 0.41856 -0.14829
-0.10792 0.41755 -0.15108
-0.10861 0.4165 -0.15396
-0.1084 0.41558 -0.15692
-0.10768 0.41461 -0.15976
-0.10729 0.41363 -0.16256
-0.10675 0.41232 -0.16534
-0.10651 0.41114 -0.16821
-0.10659 0.41019 -0.1712
-0.10639 0.40884 -0.17407
-0.10631 0.40848 -0.17739
-0.10568 0.40742 -0.18041
-0.10476 0.40552 -0.1828
-0.10415 0.40271 -0.18437
-0.11265 0.43438 -0.12048
-0.1124 0.43308 -0.12332
-0.11203 0.43181 -0.12624
-0.11169 0.42938 -0.12835
-0.11095 0.42711 -0.13037
-0.11016 0.4257 -0.133
-0.1092 0.42482 -0.13585
-0.1086 0.42381 -0.13865
-0.10843 0.42285 -0.14157
-0.10853 0.42141 -0.1443
-0.10914 0.41996 -0.14699
-0.11022 0.41878 -0.14971
-0.11095 0.41735 -0.15241
-0.11076 0.41603 -0.15525
-0.11 0.41492 -0.15805
-0.10959 0.41391 -0.16084
-0.109 0.41245 -0.16353
-0.10867 0.41112 -0.16632
-0.10856 0.40978 -0.16916
-0.10846 0.40867 -0.17213
-0.10808 0.40774 -0.1752
-0.10734 0.40644 -0.17789
-0.10688 0.40515 -0.18062
-0.10657 0.40315 -0.18297
-0.11504 0.43432 -0.12242
-0.11474 0.43276 -0.12516
-0.11423 0.43082 -0.12762
-0.11349 0.42848 -0.12953
-0.11282 0.4265 -0.1318
-0.11188 0.42527 -0.13454
-0.11125 0.42455 -0.13748
-0.11104 0.42376 -0.14047
-0.11108 0.42254 -0.14331
-0.11166 0.42118 -0.14605
-0.11277 0.41961 -0.1485
-0.1135 0.41808 -0.15113
-0.11332 0.41659 -0.1539
-0.11252 0.41531 -0.15661
-0.11209 0.41441 -0.15947
-0.11147 0.41277 -0.16206
-0.11106 0.4112 -0.1647
-0.11084 0.40959 -0.1674
-0.11059 0.4082 -0.17025
-0.11016 0.40728 -0.17327
-0.10957 0.40623 -0.17611
-0.10885 0.40449 -0.17855
-0.11767 0.43315 -0.12468
-0.11715 0.4314 -0.12723
-0.11635 0.42924 -0.12932
-0.1157 0.42724 -0.13158
-0.11477 0.42588 -0.13425
-0.11416 0.42494 -0.13713
-0.11396 0.424 -0.14009
-0.11397 0.42266 -0.14288
-0.11455 0.42117 -0.14554
-0.11564 0.41983 -0.14807
-0.11631 0.4188 -0.15086
-0.11612 0.41729 -0.15356
-0.11536 0.41566 -0.15609
-0.1149 0.41421 -0.15875
-0.11427 0.4126 -0.16132
-0.11382 0.41103 -0.16395
-0.11353 0.40919 -0.16648
-0.11324 0.40772 -0.16925
-0.11271 0.40661 -0.17214
-0.11206 0.40544 -0.17492
-0.11157 0.4041 -0.17764
-0.12064 0.43318 -0.12509
-0.12012 0.43124 -0.12748
-0.11931 0.42917 -0.12967
-0.11861 0.42741 -0.13216
-0.11767 0.42609 -0.13484
-0.11707 0.42481 -0.13762
-0.11687 0.42362 -0.1405
-0.11686 0.42227 -0.1433
-0.11742 0.42082 -0.14602
-0.11849 0.41966 -0.14867
-0.11917 0.4189 -0.15148
-0.11896 0.41756 -0.15417
-0.11819 0.41593 -0.15671
-0.11768 0.41459 -0.15951
-0.11711 0.41271 -0.16192
-0.11666 0.41058 -0.16415
-0.11633 0.40851 -0.16651
-0.11603 0.40702 -0.16927
-0.11551 0.40597 -0.17215
-0.12349 0.43251 -0.12583
-0.12294 0.4308 -0.12837
-0.12212 0.42886 -0.13068
-0.1214 0.4271 -0.13316
-0.12047 0.42554 -0.13572
-0.11985 0.42446 -0.1386
-0.11965 0.42335 -0.14152
-0.11961 0.4216 -0.14414
-0.12017 0.4202 -0.14692
-0.12123 0.41931 -0.14969
-0.1219 0.41857 -0.15251
-0.12167 0.41705 -0.15514
-0.12085 0.41593 -0.15791
-0.12029 0.41478 -0.16085
-0.11978 0.41255 -0.16306
-0.11938 0.4099 -0.16477
-0.11904 0.40769 -0.16704
-0.12582 0.43057 -0.1292
-0.12495 0.42892 -0.1317
-0.12427 0.42671 -0.13387
-0.12334 0.42521 -0.13647
-0.12271 0.42385 -0.13922
-0.12248 0.42254 -0.14206
-0.12245 0.42104 -0.14482
-0.12299 0.41977 -0.14765
-0.12405 0.419 -0.15046
-0.12479 0.41838 -0.15337
-0.12448 0.41663 -0.15588
-0.12369 0.41574 -0.15876
-0.12317 0.41444 -0.1617
-0.12256 0.41191 -0.16361
-0.12863 0.42977 -0.12989
-0.12778 0.42831 -0.13252
-0.12707 0.42625 -0.13481
-0.12614 0.42473 -0.13739
-0.12551 0.42332 -0.14012
-0.12525 0.42178 -0.14285
-0.12521 0.42039 -0.14568
-0.12576 0.41937 -0.14859
-0.12676 0.41817 -0.15123
-0.12736 0.41685 -0.15385
-0.12706 0.41536 -0.15644
-0.1264 0.41461 -0.15942
-0.13127 0.42877 -0.13089
-0.13043 0.42751 -0.13365
-0.1297 0.42549 -0.136
-0.12877 0.42382 -0.13847
-0.12814 0.42242 -0.14122
-0.12787 0.4209 -0.14396
-0.12783 0.41963 -0.14683
-0.12836 0.41852 -0.14968
-0.12925 0.41691 -0.15214
-0.12968 0.41515 -0.15453
-0.13296 0.42657 -0.13498
-0.13221 0.42432 -0.13716
-0.1313 0.42275 -0.13971
-0.13067 0.42149 -0.1425
-0.13041 0.42006 -0.14527
-0.13036 0.41879 -0.14812
-0.1308 0.41725 -0.15076
-0.13553 0.42518 -0.13583
-0.13487 0.42354 -0.13838
-0.13394 0.42229 -0.14107
-0.13331 0.42063 -0.14362
-0.13304 0.41923 -0.14638
-0.13296 0.4178 -0.14912
-0.13844 0.42547 -0.13647
-0.13771 0.42413 -0.13914
-0.13686 0.42223 -0.14145
-0.13624 0.42033 -0.14382
-0.13596 0.41899 -0.1466
-0.14074 0.42496 -0.13889
-0.13979 0.42301 -0.14125
-0.13914 0.42069 -0.14331
POLYGONS 850 3400
3 0 1 2
3 3 0 4
3 0 2 4
3 4 2 5
3 6 7 8
3 7 3 8
3 8 3 9
3 3 4 9
3 9 4 10
3 4 5 10
3 10 5 11
3 12 6 13
3 6 8 13
3 13 8 14
3 8 9 14
3 14 9 15
3 9 10 15
3 15 10 16
3 10 11 16
3 16 11 17
3 11 18 17
3 17 18 19
3 20 21 22
3 21 12 22
3 22 12 23
3 12 13 23
3 23 13 24
3 13 14 24
3 24 14 25
3 14 15 25
3 25 15 26
3 15 16 26
3 26 16 27
3 16 17 27
3 27 17 28
3 17 19 28
3 28 19 29
3 30 31 32
3 31 20 32
3 32 20 33
3 20 22 33
3 33 22 34
3 22 23 34
3 34 23 35
3 23 24 35
3 35 24 36
3 24 25 36
3 36 25 37
3 25 26 37
3 37 26 38
3 26 27 38
3 38 27 39
3 27 28 39
3 39 28 40
3 28 29 40
3 40 29 41
3 42 43 44
3 43 30 44
3 44 30 45
3 30 32 45
3 45 32 46
3 32 33 46
3 46 33 47
3 33 34 47
3 47 34 48
3 34 35 48
3 48 35 49
3 35 36 49
3 49 36 50
3 36 37 50
3 50 37 51
3 37 38 51
3 51 38 52
3 38 39 52
3 52 39 53
3 39 40 53
3 53 40 54
3 40 41 54
3 54 41 55
3 56 57 58
3 57 42 58
3 58 42 59
3 42 44 59
3 59 44 60
3 44 45 60
3 60 45 61
3 45 46 61
3 61 46 62
3 46 47 62
3 62 47 63
3 47 48 63
3 63 48 64
3 48 49 64
3 64 49 65
3 49 50 65
3 65 50 66
3 50 51 66
3 66 51 67
3 51 52 67
3 67 52 68
3 52 53 68
3 68 53 69
3 53 54 69
3 69 54 70
3 54 55 70
3 70 55 71
3 55 72 71
3 71 72 73
3 74 56 75
3 56 58 75
3 75 58 76
3 58 77 76
3 58 59 77
3 59 78 77
3 59 60 78
3 60 79 78
3 60 61 79
3 61 80 79
3 61 62 80
3 62 81 80
3 62 63 81
3 63 82 81
3 63 64 82
3 64 83 82
3 64 65 83
3 65 66 83
3 83 66 84
3 66 67 84
3 84 67 85
3 67 68 85
3 85 68 86
3 68 69 86
3 86 69 87
3 69 70 87
3 87 70 88
3 70 71 88
3 88 71 89
3 71 90 89
3 71 73 90
3 91 92 93
3 91 74 92
3 74 94 92
3 74 75 94
3 75 95 94
3 75 76 95
3 76 96 95
3 76 77 96
3 77 97 96
3 77 78 97
3 78 98 97
3 78 79 98
3 79 99 98
3 79 80 99
3 80 100 99
3 80 81 100
3 81 101 100
3 81 82 101
3 82 102 101
3 82 83 102
3 83 103 102
3 83 84 103
3 84 104 103
3 84 85 104
3 85 105 104
3 85 86 105
3 86 106 105
3 86 87 106
3 87 107 106
3 87 88 107
3 88 108 107
3 88 89 108
3 89 109 108
3 89 90 109
3 90 110 109
3 111 112 113
3 111 93 112
3 93 114 112
3 93 92 114
3 92 115 114
3 92 94 115
3 94 116 115
3 94 95 116
3 95 117 116
3 95 96 117
3 96 118 117
3 96 97 118
3 97 119 118
3 97 98 119
3 98 120 119
3 98 99 120
3 99 121 120
3 99 100 121
3 100 122 121
3 100 101 122
3 101 123 122
3 101 102 123
3 102 124 123
3 102 103 124
3 103 125 124
3 103 104 125
3 104 126 125
3 104 105 126
3 105 127 126
3 105 106 127
3 106 128 127
3 106 107 128
3 107 129 128
3 107 108 129
3 108 130 129
3 108 109 130
3 109 131 130
3 109 110 131
3 110 132 131
3 133 134 135
3 133 113 134
3 113 136 134
3 113 112 136
3 112 137 136
3 112 114 137
3 114 138 137
3 114 115 138
3 115 139 138
3 115 116 139
3 116 140 139
3 116 117 140
3 117 141 140
3 117 118 141
3 118 142 141
3 118 119 142
3 119 143 142
3 119 120 143
3 120 144 143
3 120 121 144
3 121 145 144
3 121 122 145
3 122 146 145
3 122 123 146
3 123 147 146
3 123 124 147
3 124 148 147
3 124 125 148
3 125 149 148
3 125 126 149
3 126 150 149
3 126 127 150
3 127 151 150
3 127 128 151
3 128 152 151
3 128 129 152
3 129 153 152
3 129 130 153
3 130 154 153
3 130 131 154
3 131 155 154
3 131 132 155
3 132 156 155
3 157 158 159
3 157 135 158
3 135 160 158
3 135 134 160
3 134 161 160
3 134 136 161
3 136 162 161
3 136 137 162
3 137 163 162
3 137 138 163
3 138 164 163
3 138 139 164
3 139 165 164
3 139 140 165
3 140 166 165
3 140 141 166
3 141 167 166
3 141 142 167
3 142 168 167
3 142 143 168
3 143 169 168
3 143 144 169
3 144 170 169
3 144 145 170
3 145 171 170
3 145 146 171
3 146 172 171
3 146 147 172
3 147 173 172
3 147 148 173
3 148 174 173
3 148 149 174
3 149 175 174
3 149 150 175
3 150 176 175
3 150 151 176
3 151 177 176
3 151 152 177
3 152 178 177
3 152 153 178
3 153 179 178
3 153 154 179
3 154 180 179
3 154 155 180
3 155 181 180
3 155 156 181
3 156 182 181
3 159 158 183
3 158 184 183
3 158 160 184
3 160 185 184
3 160 161 185
3 161 186 185
3 161 162 186
3 162 187 186
3 162 163 187
3 163 188 187
3 163 164 188
3 164 189 188
3 164 165 189
3 165 190 189
3 165 166 190
3 166 191 190
3 166 167 191
3 167 192 191
3 167 168 192
3 168 193 192
3 168 169 193
3 169 194 193
3 169 170 194
3 170 195 194
3 170 171 195
3 171 196 195
3 171 172 196
3 172 197 196
3 172 173 197
3 173 198 197
3 173 174 198
3 174 199 198
3 174 175 199
3 175 200 199
3 175 176 200
3 176 201 200
3 176 177 201
3 177 202 201
3 177 178 202
3 178 203 202
3 178 179 203
3 179 204 203
3 179 180 204
3 180 205 204
3 180 181 205
3 181 206 205
3 181 182 206
3 182 207 206
3 183 184 208
3 184 209 208
3 184 185 209
3 185 210 209
3 185 186 210
3 186 211 210
3 186 187 211
3 187 212 211
3 187 188 212
3 188 213 212
3 188 189 213
3 189 214 213
3 189 190 214
3 190 215 214
3 190 191 215
3 191 216 215
3 191 192 216
3 192 217 216
3 192 193 217
3 193 218 217
3 193 194 218
3 194 219 218
3 194 195 219
3 195 220 219
3 195 196 220
3 196 221 220
3 196 197 221
3 197 222 221
3 197 198 222
3 198 223 222
3 198 199 223
3 199 224 223
3 199 200 224
3 200 225 224
3 200 201 225
3 201 226 225
3 201 202 226
3 202 227 226
3 202 203 227
3 203 228 227
3 203 204 228
3 204 229 228
3 204 205 229
3 205 230 229
3 205 206 230
3 206 231 230
3 206 207 231
3 207 232 231
3 208 209 233
3 209 234 233
3 209 210 234
3 210 235 234
3 210 211 235
3 211 236 235
3 211 212 236
3 212 237 236
3 212 213 237
3 213 238 237
3 213 214 238
3 214 239 238
3 214 215 239
3 215 240 239
3 215 216 240
3 216 241 240
3 216 217 241
3 217 242 241
3 217 218 242
3 218 243 242
3 218 219 243
3 219 244 243
3 219 220 244
3 220 245 244
3 220 221 245
3 221 246 245
3 221 222 246
3 222 247 246
3 222 223 247
3 223 248 247
3 223 224 248
3 224 249 248
3 224 225 249
3 225 250 249
3 225 226 250
3 226 251 250
3 226 227 251
3 227 252 251
3 227 228 252
3 228 253 252
3 228 229 253
3 229 254 253
3 229 230 254
3 230 255 254
3 230 231 255
3 231 256 255
3 231 232 256
3 232 257 256
3 233 234 258
3 234 259 258
3 234 235 259
3 235 260 259
3 235 236 260
3 236 261 260
3 236 237 261
3 237 262 261
3 237 238 262
3 238 263 262
3 238 239 263
3 239 264 263
3 239 240 264
3 240 265 264
3 240 241 265
3 241 266 265
3 241 242 266
3 242 267 266
3 242 243 267
3 243 268 267
3 243 244 268
3 244 269 268
3 244 245 269
3 245 270 269
3 245 246 270
3 246 271 270
3 246 247 271
3 247 272 271
3 247 248 272
3 248 273 272
3 248 249 273
3 249 274 273
3 249 250 274
3 250 275 274
3 250 251 275
3 251 276 275
3 251 252 276
3 252 277 276
3 252 253 277
3 253 278 277
3 253 254 278
3 254 279 278
3 254 255 279
3 255 280 279
3 255 256 280
3 256 281 280
3 256 257 281
3 257 282 281
3 258 259 283
3 259 284 283
3 259 260 284
3 260 285 284
3 260 261 285
3 261 286 285
3 261 262 286
3 262 287 286
3 262 263 287
3 263 288 287
3 263 264 288
3 264 289 288
3 264 265 289
3 265 290 289
3 265 266 290
3 266 291 290
3 266 267 291
3 267 292 291
3 267 268 292
3 268 293 292
3 268 269 293
3 269 294 293
3 269 270 294
3 270 295 294
3 270 271 295
3 271 296 295
3 271 272 296
3 272 297 296
3 272 273 297
3 273 298 297
3 273 274 298
3 274 299 298
3 274 275 299
3 275 300 299
3 275 276 300
3 276 301 300
3 276 277 301
3 277 302 301
3 277 278 302
3 278 303 302
3 278 279 303
3 279 304 303
3 279 280 304
3 280 305 304
3 280 281 305
3 281 306 305
3 281 282 306
3 282 307 306
3 283 284 308
3 284 309 308
3 284 285 309
3 285 310 309
3 285 286 310
3 286 311 310
3 286 287 311
3 287 312 311
3 287 288 312
3 288 313 312
3 288 289 313
3 289 314 313
3 289 290 314
3 290 315 314
3 290 291 315
3 291 316 315
3 291 292 316
3 292 317 316
3 292 293 317
3 293 318 317
3 293 294 318
3 294 319 318
3 294 295 319
3 295 320 319
3 295 296 320
3 296 321 320
3 296 297 321
3 297 322 321
3 297 298 322
3 298 323 322
3 298 299 323
3 299 324 323
3 299 300 324
3 300 325 324
3 300 301 325
3 301 326 325
3 301 302 326
3 302 327 326
3 302 303 327
3 303 328 327
3 303 304 328
3 304 329 328
3 304 305 329
3 305 330 329
3 305 306 330
3 306 331 330
3 306 307 331
3 308 309 332
3 309 333 332
3 309 310 333
3 310 334 333
3 310 311 334
3 311 335 334
3 311 312 335
3 312 336 335
3 312 313 336
3 313 337 336
3 313 314 337
3 314 338 337
3 314 315 338
3 315 339 338
3 315 316 339
3 316 340 339
3 316 317 340
3 317 341 340
3 317 318 341
3 318 342 341
3 318 319 342
3 319 343 342
3 319 320 343
3 320 344 343
3 320 321 344
3 321 345 344
3 321 322 345
3 322 346 345
3 322 323 346
3 323 347 346
3 323 324 347
3 324 348 347
3 324 325 348
3 325 349 348
3 325 326 349
3 326 350 349
3 326 327 350
3 327 351 350
3 327 328 351
3 328 352 351
3 328 329 352
3 329 353 352
3 329 330 353
3 332 333 354
3 333 355 354
3 333 334 355
3 334 356 355
3 334 335 356
3 335 357 356
3 335 336 357
3 336 358 357
3 336 337 358
3 337 359 358
3 337 338 359
3 338 360 359
3 338 339 360
3 339 361 360
3 339 340 361
3 340 341 361
3 361 341 362
3 341 342 362
3 362 342 363
3 342 343 363
3 363 343 364
3 343 365 364
3 343 344 365
3 344 366 365
3 344 345 366
3 345 367 366
3 345 346 367
3 346 368 367
3 346 347 368
3 347 369 368
3 347 348 369
3 348 370 369
3 348 349 370
3 349 371 370
3 349 350 371
3 350 372 371
3 350 351 372
3 351 373 372
3 351 352 373
3 352 374 373
3 352 353 374
3 354 355 375
3 375 355 376
3 355 377 376
3 355 356 377
3 356 357 377
3 377 357 378
3 357 379 378
3 357 358 379
3 358 359 379
3 379 359 380
3 359 360 380
3 380 360 381
3 360 361 381
3 381 361 382
3 361 362 382
3 382 362 383
3 362 363 383
3 383 363 384
3 363 364 384
3 384 364 385
3 364 365 385
3 385 365 386
3 365 387 386
3 365 366 387
3 366 367 387
3 387 367 388
3 367 368 388
3 388 368 389
3 368 369 389
3 389 369 390
3 369 370 390
3 390 370 391
3 370 371 391
3 391 371 392
3 371 393 392
3 371 372 393
3 375 376 394
3 394 376 395
3 376 377 395
3 395 377 396
3 377 378 396
3 396 378 397
3 378 379 397
3 397 379 398
3 379 380 398
3 398 380 399
3 380 381 399
3 399 381 400
3 381 382 400
3 400 382 401
3 382 383 401
3 401 383 402
3 383 384 402
3 402 384 403
3 384 385 403
3 403 385 404
3 385 386 404
3 404 386 405
3 386 387 405
3 405 387 406
3 387 388 406
3 406 388 407
3 388 389 407
3 407 389 408
3 389 390 408
3 408 390 409
3 390 391 409
3 409 391 410
3 391 392 410
3 395 396 411
3 411 396 412
3 396 397 412
3 412 397 413
3 397 398 413
3 413 398 414
3 398 399 414
3 414 399 415
3 399 400 415
3 415 400 416
3 400 401 416
3 416 401 417
3 401 402 417
3 417 402 418
3 402 403 418
3 418 403 419
3 403 404 419
3 419 404 420
3 404 405 420
3 420 405 421
3 405 406 421
3 421 406 422
3 406 407 422
3 422 407 423
3 407 408 423
3 423 408 424
3 408 409 424
3 411 412 425
3 425 412 426
3 412 413 426
3 426 413 427
3 413 414 427
3 427 414 428
3 414 415 428
3 428 415 429
3 415 416 429
3 429 416 430
3 416 417 430
3 430 417 431
3 417 418 431
3 431 418 432
3 418 419 432
3 432 419 433
3 419 420 433
3 433 420 434
3 420 421 434
3 434 421 435
3 421 422 435
3 435 422 436
3 422 423 436
3 425 426 437
3 437 426 438
3 426 427 438
3 438 427 439
3 427 428 439
3 439 428 440
3 428 429 440
3 440 429 441
3 429 430 441
3 441 430 442
3 430 431 442
3 442 431 443
3 431 432 443
3 443 432 444
3 432 433 444
3 444 433 445
3 433 434 445
3 445 434 446
3 434 435 446
3 438 439 447
3 447 439 448
3 439 440 448
3 448 440 449
3 440 441 449
3 449 441 450
3 441 442 450
3 450 442 451
3 442 443 451
3 451 443 452
3 443 444 452
3 452 444 453
3 444 445 453
3 447 448 454
3 454 448 455
3 448 449 455
3 455 449 456
3 449 450 456
3 456 450 457
3 450 451 457
3 457 451 458
3 451 452 458
3 458 452 459
3 452 453 459
3 454 455 460
3 460 455 461
3 455 462 461
3 455 456 462
3 456 457 462
3 462 457 463
3 457 458 463
3 463 458 464
3 458 459 464
3 460 461 465
3 461 466 465
3 461 462 466
3 462 467 466
3 462 463 467
CELL_DATA 850
SCALARS brightness_temperature float
LOOKUP_TABLE default
POINT_DATA 468
CELL_DATA 850
SCALARS emission_angle float
LOOKUP_TABLE default
POINT_DATA 468
CELL_DATA 850
SCALARS incidence_angle float
LOOKUP_TABLE default
POINT_DATA 468
CELL_DATA 850
SCALARS phase_angle float
LOOKUP_TABLE default
POINT_DATA 468
CELL_DATA 850
SCALARS local_solar_time float
LOOKUP_TABLE default
POINT_DATA 468
CELL_DATA 850
SCALARS local_solar_time_normal_vector float
LOOKUP_TABLE default
CELL_DATA 850
SCALARS pixel_x float
LOOKUP_TABLE default
POINT_DATA 468
CELL_DATA 850
SCALARS pixel_y float
LOOKUP_TABLE default
POINT_DATA 468
CELL_DATA 850
SCALARS longitude float
LOOKUP_TABLE default
POINT_DATA 468
CELL_DATA 850
SCALARS latitude float
LOOKUP_TABLE default
