# vtk DataFile Version 3.0
SHAPE_sfm_50k_v20200323
ASCII
DATASET POLYDATA
POINTS 2755 float
0.13558 0.29733 0.25831
0.13558 0.2986 0.25569
0.13339 0.29781 0.25835
0.13339 0.29913 0.25575
0.13533 0.29983 0.25309
0.13315 0.30045 0.25319
0.13512 0.30082 0.25036
0.13296 0.30158 0.25052
0.13319 0.30262 0.24779
0.13542 0.30198 0.24768
0.13379 0.30394 0.24522
0.13605 0.30337 0.24516
0.13463 0.3057 0.24297
0.13123 0.29834 0.25856
0.13124 0.29975 0.256
0.13103 0.30119 0.2535
0.13087 0.30241 0.25088
0.13108 0.30349 0.24817
0.13162 0.30474 0.24555
0.13242 0.30643 0.24324
0.13353 0.30844 0.24141
0.13573 0.30775 0.2412
0.1342 0.31047 0.23947
0.13642 0.30982 0.2393
0.13669 0.31168 0.2371
0.1345 0.31242 0.23736
0.13506 0.31443 0.23533
0.13123 0.29724 0.26128
0.12907 0.29884 0.25867
0.12905 0.2977 0.2614
0.12912 0.3004 0.25619
0.12888 0.30177 0.25365
0.12876 0.30316 0.2511
0.12913 0.30458 0.24858
0.12967 0.30586 0.24602
0.13043 0.30749 0.24369
0.13147 0.3094 0.24173
0.13211 0.3114 0.23974
0.13243 0.31341 0.23767
0.13301 0.31544 0.23568
0.1354 0.31653 0.23337
0.13341 0.31766 0.23385
0.13564 0.31853 0.23128
0.13366 0.31969 0.23179
0.13575 0.32019 0.2289
0.13387 0.32149 0.22952
0.13599 0.32192 0.22659
0.13405 0.32316 0.22715
0.13627 0.32367 0.22429
0.1344 0.32502 0.22494
0.13507 0.32715 0.22309
0.12696 0.29843 0.26148
0.12693 0.29943 0.25869
0.12693 0.30083 0.2561
0.12669 0.30232 0.2536
0.12661 0.30386 0.25112
0.12705 0.30543 0.2487
0.12776 0.30702 0.24636
0.12848 0.30861 0.24403
0.12938 0.31033 0.24185
0.13003 0.31235 0.23987
0.13033 0.31433 0.23776
0.13084 0.31628 0.23565
0.13123 0.31852 0.23385
0.13158 0.32076 0.23203
0.13178 0.32257 0.22976
0.13203 0.32436 0.22747
0.13264 0.32651 0.2256
0.13355 0.32878 0.22403
0.13446 0.33105 0.22243
0.1358 0.32933 0.22131
0.13493 0.33304 0.22031
0.13645 0.33137 0.21931
0.13511 0.3346 0.21785
0.12486 0.29902 0.26143
0.1248 0.30005 0.25862
0.12475 0.30141 0.256
0.12454 0.303 0.25353
0.1245 0.3047 0.25115
0.12495 0.30629 0.24875
0.12565 0.30785 0.24638
0.12641 0.30956 0.24413
0.12732 0.31133 0.242
0.12786 0.31315 0.2398
0.12816 0.31515 0.23769
0.12875 0.3173 0.23579
0.12914 0.31955 0.23399
0.12945 0.32174 0.23211
0.1297 0.32367 0.22995
0.12997 0.32552 0.22771
0.13065 0.32777 0.22595
0.13174 0.33023 0.22479
0.13275 0.33264 0.22338
0.13338 0.33479 0.22137
0.13371 0.33643 0.21893
0.13417 0.33762 0.21627
0.13548 0.33577 0.21521
0.13494 0.3384 0.21351
0.13585 0.33632 0.2124
0.13471 0.33835 0.21054
0.12271 0.2996 0.26134
0.12266 0.3007 0.25852
0.12262 0.30216 0.25595
0.12239 0.30376 0.25348
0.12239 0.30557 0.25116
0.12287 0.30724 0.24882
0.12359 0.30883 0.24648
0.12434 0.31055 0.24422
0.12528 0.31238 0.24215
0.12578 0.31417 0.23991
0.1261 0.31622 0.23784
0.12671 0.31841 0.236
0.12708 0.32063 0.23415
0.12734 0.32277 0.23219
0.12758 0.32472 0.23004
0.12786 0.32658 0.22779
0.12855 0.32889 0.22611
0.12957 0.33138 0.22494
0.13047 0.33383 0.22353
0.13099 0.33584 0.22139
0.13135 0.33744 0.21896
0.13239 0.33938 0.21697
0.13377 0.34064 0.21439
0.13348 0.34045 0.21122
0.13437 0.33812 0.2076
0.13265 0.33981 0.2084
0.13251 0.33995 0.20542
0.13465 0.3388 0.20471
0.13284 0.3406 0.20254
0.1351 0.33963 0.20192
0.13331 0.3415 0.19978
0.13571 0.34083 0.1993
0.13377 0.34261 0.19712
0.13353 0.3456 0.19213
0.13548 0.34646 0.18928
0.13304 0.34707 0.18967
0.13502 0.34785 0.18674
0.13257 0.34848 0.18714
0.13471 0.3496 0.18438
0.13228 0.35035 0.18488
0.1348 0.35159 0.18222
0.1323 0.35218 0.18259
0.13274 0.35412 0.18045
0.13519 0.35343 0.18
0.13353 0.35608 0.17843
0.12058 0.30033 0.26144
0.12053 0.30144 0.2586
0.12047 0.30291 0.25602
0.12028 0.30464 0.25363
0.1203 0.30647 0.25134
0.1208 0.30817 0.24901
0.12154 0.30982 0.24672
0.12229 0.31155 0.24447
0.12318 0.3133 0.24232
0.12372 0.31518 0.24015
0.12402 0.31722 0.23808
0.12456 0.3193 0.23609
0.12492 0.32152 0.23423
0.12516 0.32365 0.23226
0.12542 0.32567 0.23018
0.12566 0.3275 0.2279
0.12631 0.32973 0.22607
0.12727 0.33212 0.22467
0.12811 0.33424 0.22284
0.12861 0.33614 0.22068
0.129 0.33804 0.2185
0.12992 0.34034 0.21685
0.13148 0.3423 0.21483
0.13176 0.34244 0.21154
0.13094 0.3416 0.20871
0.13033 0.34112 0.20577
0.13074 0.34195 0.20291
0.13107 0.34264 0.20011
0.13137 0.34344 0.19726
0.13372 0.34402 0.19456
0.13133 0.34488 0.19469
0.13109 0.34628 0.19221
0.13053 0.34755 0.18965
0.13009 0.34907 0.18714
0.12982 0.35107 0.18498
0.12982 0.35288 0.18269
0.13022 0.35469 0.18045
0.13094 0.35633 0.17815
0.13157 0.35751 0.17554
0.13415 0.35736 0.17586
0.13212 0.35895 0.17306
0.13473 0.35876 0.17338
0.13276 0.36059 0.17073
0.1186 0.30133 0.26171
0.11842 0.30224 0.25883
0.11842 0.30383 0.2563
0.11827 0.30563 0.25399
0.11826 0.30742 0.25167
0.11874 0.3091 0.24932
0.11951 0.31081 0.24707
0.12023 0.3125 0.2448
0.12112 0.31427 0.24265
0.12166 0.31618 0.24051
0.12195 0.31822 0.23844
0.12244 0.32023 0.23638
0.12277 0.32241 0.23447
0.12302 0.32459 0.23255
0.12328 0.32663 0.23048
0.12349 0.32844 0.22818
0.12406 0.33056 0.22623
0.12494 0.33273 0.22448
0.12575 0.33473 0.22253
0.12625 0.33675 0.22048
0.12661 0.33834 0.21805
0.12748 0.34034 0.21609
0.12875 0.34233 0.21423
0.12922 0.3433 0.21127
0.12861 0.34237 0.20834
0.12843 0.34268 0.20542
0.12888 0.34363 0.20267
0.12906 0.34411 0.19981
0.12914 0.3445 0.19684
0.1291 0.34597 0.19429
0.12877 0.34717 0.19172
0.12819 0.34844 0.18915
0.12773 0.34999 0.18663
0.12744 0.35195 0.18445
0.12746 0.35386 0.18225
0.12779 0.35543 0.17984
0.12844 0.35673 0.17731
0.12908 0.35822 0.17486
0.12969 0.35993 0.17256
0.13037 0.36161 0.17029
0.13341 0.36226 0.16842
0.13098 0.36312 0.16786
0.13404 0.36381 0.16603
0.13168 0.36495 0.16568
0.13444 0.36526 0.16355
0.13209 0.36647 0.16323
0.13452 0.36676 0.16105
0.1322 0.36808 0.1608
0.13489 0.36841 0.15867
0.1326 0.3698 0.15847
0.1166 0.3022 0.26199
0.11645 0.30328 0.25921
0.11639 0.30476 0.25663
0.1163 0.30666 0.25439
0.11622 0.30838 0.25202
0.11669 0.31004 0.24965
0.11744 0.31173 0.24737
0.11822 0.31353 0.24519
0.11911 0.31532 0.24307
0.11969 0.31729 0.241
0.11996 0.31931 0.23891
0.12038 0.32126 0.23677
0.12062 0.32334 0.23473
0.121 0.32571 0.23303
0.12108 0.32747 0.23068
0.1213 0.32933 0.22842
0.12195 0.33165 0.22672
0.12267 0.33353 0.22459
0.12346 0.33557 0.22266
0.1239 0.33748 0.22044
0.12418 0.33852 0.21769
0.12515 0.33991 0.21529
0.12645 0.34159 0.2133
0.1267 0.34286 0.21065
0.12631 0.34307 0.20772
0.12625 0.34374 0.20489
0.12665 0.34467 0.20214
0.12671 0.34468 0.19917
0.12692 0.34548 0.19629
0.12681 0.34684 0.19371
0.12642 0.34788 0.19103
0.12584 0.34933 0.18851
0.12541 0.35108 0.18615
0.12513 0.35308 0.18401
0.12515 0.35501 0.18183
0.12544 0.35655 0.17939
0.12606 0.35789 0.17686
0.12671 0.35942 0.17444
0.12735 0.3611 0.17214
0.128 0.3627 0.1698
0.1286 0.36428 0.16741
0.12932 0.36604 0.16518
0.12982 0.36778 0.16289
0.13001 0.36957 0.1606
0.13044 0.37136 0.15832
0.1333 0.37124 0.15604
0.11492 0.30201 0.26502
0.11459 0.30305 0.26228
0.11457 0.30439 0.25965
0.1144 0.30575 0.25702
0.1143 0.30765 0.25476
0.11429 0.30948 0.25248
0.11468 0.31106 0.25004
0.11539 0.3127 0.2477
0.11621 0.31455 0.24557
0.11712 0.31638 0.24348
0.11768 0.31834 0.24139
0.11791 0.32035 0.23927
0.11843 0.32244 0.23729
0.1187 0.32456 0.23531
0.11883 0.3266 0.23322
0.11882 0.32819 0.23074
0.11909 0.33016 0.22857
0.11965 0.33238 0.22673
0.1204 0.33435 0.2247
0.12113 0.33627 0.22259
0.12146 0.33762 0.22
0.12176 0.33895 0.21742
0.12269 0.34008 0.21488
0.12407 0.34127 0.21261
0.12429 0.3427 0.21008
0.12394 0.34373 0.20738
0.12378 0.34403 0.20446
0.12415 0.34474 0.20164
0.12432 0.34531 0.19875
0.12457 0.34637 0.19601
0.12435 0.3474 0.19327
0.124 0.34875 0.19068
0.12348 0.3504 0.18828
0.12309 0.35225 0.186
0.12278 0.35421 0.18385
0.1228 0.35611 0.18163
0.12308 0.3577 0.1792
0.12378 0.35922 0.1768
0.12442 0.36071 0.17436
0.12497 0.36229 0.17195
0.12565 0.36396 0.16964
0.12638 0.36575 0.16745
0.12693 0.36718 0.16495
0.12747 0.36899 0.1627
0.12774 0.37096 0.16056
0.12815 0.37271 0.15824
0.11279 0.30256 0.26527
0.11252 0.30375 0.26257
0.11253 0.30518 0.25999
0.11251 0.30683 0.25754
0.1123 0.30861 0.2552
0.11234 0.31053 0.25299
0.11274 0.31214 0.25057
0.11343 0.31376 0.24822
0.11419 0.31555 0.24601
0.11508 0.31736 0.24388
0.11571 0.31943 0.2419
0.11601 0.32155 0.2399
0.11664 0.32373 0.23805
0.1167 0.32564 0.23585
0.11651 0.32719 0.23336
0.1166 0.329 0.23105
0.11678 0.33081 0.22873
0.11728 0.33281 0.22663
0.11804 0.33487 0.22469
0.11874 0.33671 0.22251
0.11909 0.33826 0.22005
0.11941 0.33968 0.21751
0.12029 0.34072 0.21491
0.12159 0.3416 0.21246
0.12184 0.34314 0.20998
0.12161 0.34461 0.20746
0.12141 0.34498 0.20457
0.12153 0.34491 0.20157
0.12183 0.34587 0.19873
0.1221 0.34698 0.19603
0.12191 0.34821 0.19335
0.12162 0.34973 0.19085
0.12113 0.35144 0.1885
0.12078 0.35337 0.18631
0.12037 0.35514 0.18402
0.12035 0.35704 0.18177
0.12067 0.35871 0.17939
0.1214 0.36029 0.17703
0.12203 0.36184 0.17463
0.12267 0.36358 0.17235
0.12333 0.36521 0.17002
0.12397 0.36679 0.16767
0.12455 0.36829 0.16522
0.12496 0.36987 0.16276
0.12529 0.37196 0.16072
0.12567 0.3736 0.15831
0.1107 0.30325 0.26556
0.11045 0.30449 0.26289
0.11049 0.30599 0.26033
0.11047 0.30767 0.2579
0.11032 0.30958 0.25566
0.11033 0.31148 0.25343
0.11082 0.31322 0.25112
0.11148 0.31483 0.24876
0.11219 0.31657 0.2465
0.11305 0.31836 0.24433
0.1137 0.32047 0.24238
0.11426 0.32284 0.24073
0.11484 0.325 0.23882
0.11474 0.32675 0.23646
0.11454 0.32835 0.23401
0.11456 0.33008 0.23165
0.11461 0.33173 0.22921
0.11502 0.33361 0.22698
0.11572 0.33551 0.22486
0.11636 0.33721 0.22257
0.11672 0.33885 0.22016
0.117 0.3402 0.21758
0.11787 0.34121 0.21496
0.11924 0.34239 0.21268
0.11951 0.34396 0.21022
0.11927 0.34541 0.20768
0.11936 0.34649 0.20493
0.11926 0.34612 0.20192
0.11942 0.34668 0.19898
0.11968 0.34773 0.19624
0.11949 0.34901 0.19356
0.11929 0.35073 0.19119
0.1188 0.35244 0.18886
0.11836 0.35425 0.18659
0.11795 0.3561 0.18434
0.11793 0.35801 0.18209
0.11827 0.35974 0.17973
0.11904 0.36142 0.17747
0.11982 0.36316 0.17523
0.12053 0.36497 0.17304
0.12116 0.36659 0.1707
0.12155 0.36783 0.16811
0.12204 0.36913 0.1655
[...]
CELL_DATA 5287
SCALARS brightness_temperature float
LOOKUP_TABLE default
POINT_DATA 2755
CELL_DATA 5287
SCALARS emission_angle float
LOOKUP_TABLE default
POINT_DATA 2755
CELL_DATA 5287
SCALARS incidence_angle float
LOOKUP_TABLE default
POINT_DATA 2755
CELL_DATA 5287
SCALARS phase_angle float
LOOKUP_TABLE default
POINT_DATA 2755
CELL_DATA 5287
SCALARS local_solar_time float
LOOKUP_TABLE default
POINT_DATA 2755
CELL_DATA 5287
SCALARS local_solar_time_normal_vector float
LOOKUP_TABLE default
CELL_DATA 5287
SCALARS pixel_x float
LOOKUP_TABLE default
POINT_DATA 2755
CELL_DATA 5287
SCALARS pixel_y float
LOOKUP_TABLE default
POINT_DATA 2755
CELL_DATA 5287
SCALARS longitude float
LOOKUP_TABLE default
POINT_DATA 2755
CELL_DATA 5287
SCALARS latitude float
LOOKUP_TABLE default
