# vtk DataFile Version 3.0
SHAPE_sfm_50k_v20200323
ASCII
DATASET POLYDATA
POINTS 19095 float
0.27066 -0.11628 -0.26687
0.2689 -0.11766 -0.26894
0.26895 -0.11565 -0.26901
0.27219 -0.11542 -0.26486
0.27075 -0.1143 -0.26699
0.26909 -0.1137 -0.26917
0.27594 -0.11521 -0.2612
0.27362 -0.11661 -0.26281
0.27383 -0.11464 -0.26297
0.27245 -0.11349 -0.26511
0.27098 -0.11234 -0.26721
0.26946 -0.11176 -0.26952
0.28237 -0.11482 -0.25572
0.28017 -0.11605 -0.25751
0.28037 -0.11403 -0.25757
0.27828 -0.11545 -0.25958
0.27831 -0.11345 -0.25943
0.27624 -0.11327 -0.26136
0.2743 -0.11277 -0.26338
0.27276 -0.11156 -0.26543
0.2711 -0.11033 -0.26735
0.26958 -0.10972 -0.26963
0.28496 -0.11354 -0.25438
0.28285 -0.11291 -0.25619
0.28074 -0.11211 -0.25792
0.2788 -0.11162 -0.25991
0.27685 -0.11151 -0.26199
0.27486 -0.11096 -0.264
0.27319 -0.10968 -0.26595
0.27128 -0.10838 -0.26758
0.26947 -0.10774 -0.26958
0.29383 -0.11232 -0.24719
0.29127 -0.1142 -0.24872
0.29172 -0.11219 -0.24909
0.28967 -0.11236 -0.25109
0.28908 -0.11429 -0.25054
0.28696 -0.11414 -0.25242
0.28753 -0.1122 -0.25299
0.28541 -0.11154 -0.25481
0.28333 -0.11096 -0.25666
0.2813 -0.11027 -0.25851
0.27953 -0.10995 -0.26071
0.27764 -0.1099 -0.26292
0.27542 -0.10916 -0.2647
0.27356 -0.10773 -0.26636
0.27151 -0.10642 -0.26779
0.26964 -0.10581 -0.26975
0.29888 -0.11161 -0.24454
0.2961 -0.11297 -0.2456
0.29653 -0.11094 -0.24601
0.29438 -0.11037 -0.2478
0.29217 -0.11019 -0.2496
0.29011 -0.11031 -0.25161
0.28773 -0.11009 -0.25322
0.28561 -0.10947 -0.25503
0.28362 -0.10893 -0.25696
0.28195 -0.10846 -0.2592
0.28041 -0.10833 -0.26166
0.27832 -0.10814 -0.26379
0.27592 -0.10727 -0.2653
0.27388 -0.10576 -0.26663
0.27181 -0.10448 -0.26804
0.27002 -0.1039 -0.27013
0.30412 -0.11127 -0.24242
0.30125 -0.11244 -0.24319
0.30172 -0.11041 -0.24374
0.29929 -0.10955 -0.24497
0.297 -0.10893 -0.24658
0.29478 -0.10831 -0.2483
0.29238 -0.10807 -0.24986
0.29003 -0.10815 -0.25152
0.2878 -0.108 -0.2533
0.28573 -0.10742 -0.25518
0.28385 -0.10692 -0.25724
0.28259 -0.10652 -0.25978
0.2812 -0.1064 -0.26243
0.27884 -0.10615 -0.26435
0.27634 -0.10529 -0.26568
0.27424 -0.1038 -0.26691
0.27219 -0.10255 -0.26839
0.27045 -0.10199 -0.27053
0.30719 -0.11013 -0.24177
0.30471 -0.10921 -0.24285
0.30223 -0.10833 -0.24401
0.29982 -0.10752 -0.24533
0.29744 -0.10686 -0.24682
0.29505 -0.1062 -0.24831
0.29256 -0.10597 -0.24975
0.29015 -0.10608 -0.25131
0.28808 -0.10597 -0.25328
0.28606 -0.10542 -0.25526
0.2843 -0.10495 -0.25748
0.28276 -0.10441 -0.25984
0.28141 -0.10413 -0.26247
0.27924 -0.10402 -0.2646
0.27669 -0.10326 -0.26592
0.27454 -0.10181 -0.2671
0.27251 -0.10059 -0.26867
0.27081 -0.10004 -0.27087
0.31295 -0.11047 -0.24065
0.30967 -0.11129 -0.24093
0.31049 -0.10928 -0.2414
0.30799 -0.10813 -0.24225
0.30543 -0.10716 -0.24307
0.30291 -0.10628 -0.24414
0.30056 -0.10552 -0.24561
0.29814 -0.10486 -0.24708
0.29568 -0.1042 -0.24848
0.29311 -0.10398 -0.24979
0.29066 -0.10408 -0.25129
0.28867 -0.10404 -0.25337
0.28684 -0.10358 -0.25558
0.28488 -0.10303 -0.25768
0.28278 -0.10237 -0.25957
0.28088 -0.10216 -0.26171
0.27911 -0.10193 -0.26402
0.27688 -0.10119 -0.26579
0.2748 -0.09983 -0.2672
0.2729 -0.09868 -0.26902
0.27099 -0.09806 -0.27105
0.31518 -0.11046 -0.24024
0.31333 -0.10831 -0.24089
0.31087 -0.10713 -0.24177
0.3083 -0.10595 -0.24243
0.30566 -0.10499 -0.2431
0.30325 -0.10416 -0.24442
0.30087 -0.10338 -0.24586
0.29838 -0.10272 -0.24721
0.29599 -0.10212 -0.24872
0.29358 -0.10203 -0.25035
0.29102 -0.10209 -0.25169
0.28923 -0.10217 -0.25396
0.28751 -0.1018 -0.25634
0.28527 -0.10109 -0.25819
0.28279 -0.10036 -0.25957
0.28041 -0.10028 -0.26115
0.27855 -0.10006 -0.26334
0.2768 -0.0992 -0.26548
0.27518 -0.09789 -0.26745
0.27344 -0.0968 -0.26954
0.2712 -0.09609 -0.27125
0.31523 -0.10824 -0.24045
0.31342 -0.1061 -0.24129
0.31087 -0.10489 -0.24193
0.30824 -0.10374 -0.24235
0.30557 -0.10282 -0.24299
0.30315 -0.10199 -0.24433
0.30079 -0.10124 -0.24585
0.29835 -0.10061 -0.24726
0.29613 -0.10005 -0.24903
0.29383 -0.1 -0.25081
0.29146 -0.10021 -0.25245
0.28981 -0.10037 -0.25484
0.28797 -0.09989 -0.25718
0.28548 -0.0991 -0.25869
0.28288 -0.09838 -0.25982
0.28033 -0.09831 -0.2611
0.27837 -0.0981 -0.26317
0.27685 -0.09722 -0.26545
0.27561 -0.09593 -0.26775
0.27377 -0.09478 -0.26976
0.27151 -0.09416 -0.27152
0.31697 -0.11063 -0.23992
0.31722 -0.1084 -0.23997
0.31561 -0.10603 -0.24073
0.31368 -0.10384 -0.24114
0.3111 -0.10268 -0.24165
0.30846 -0.10158 -0.24211
0.30584 -0.10067 -0.24291
0.30338 -0.09986 -0.24419
0.30107 -0.09914 -0.2458
0.29869 -0.09853 -0.24734
0.29658 -0.09801 -0.24923
0.2945 -0.09809 -0.25126
0.29236 -0.09849 -0.25321
0.29031 -0.09836 -0.25526
0.28831 -0.09779 -0.25739
0.2859 -0.09709 -0.25896
0.28338 -0.09647 -0.26031
0.28075 -0.0964 -0.26146
0.27856 -0.09614 -0.26327
0.27707 -0.09526 -0.26558
0.2758 -0.0939 -0.26784
0.27388 -0.09278 -0.26975
0.27188 -0.09222 -0.2718
0.31952 -0.10823 -0.23939
0.31766 -0.10617 -0.2401
0.3159 -0.10378 -0.24036
0.31383 -0.1017 -0.24045
0.31127 -0.10055 -0.24106
0.30874 -0.09942 -0.2419
0.30615 -0.09853 -0.24286
0.30374 -0.09776 -0.24428
0.30152 -0.09708 -0.24604
0.29909 -0.09646 -0.2475
0.29703 -0.09596 -0.24946
0.29536 -0.09621 -0.25185
0.29331 -0.09672 -0.25396
0.29086 -0.09639 -0.2556
0.2886 -0.09577 -0.25735
0.2863 -0.09509 -0.25903
0.28389 -0.09453 -0.26056
0.28135 -0.09454 -0.26192
0.27917 -0.09431 -0.26378
0.27751 -0.09337 -0.26598
0.27584 -0.09192 -0.26787
0.27407 -0.09082 -0.2699
0.27214 -0.09024 -0.27199
0.3247 -0.10887 -0.23827
0.32184 -0.10973 -0.23881
0.32222 -0.10749 -0.23877
0.31991 -0.10597 -0.2394
0.31792 -0.10391 -0.23971
0.31601 -0.10164 -0.23962
0.31391 -0.09959 -0.23975
0.31144 -0.09841 -0.24061
0.30904 -0.09727 -0.24177
0.30661 -0.09644 -0.24313
0.30429 -0.09574 -0.24476
0.30188 -0.09498 -0.24621
0.29943 -0.09437 -0.24766
0.29741 -0.09389 -0.24969
0.29574 -0.09411 -0.25208
0.29387 -0.09466 -0.25434
0.29148 -0.09448 -0.25612
0.28909 -0.09383 -0.2577
0.28665 -0.09311 -0.25914
0.28436 -0.09259 -0.26085
0.282 -0.09273 -0.26254
0.27978 -0.09248 -0.26439
0.27796 -0.09146 -0.26643
0.27618 -0.09001 -0.2682
0.27433 -0.08888 -0.27014
0.27234 -0.08828 -0.27218
0.32783 -0.10743 -0.23754
0.32509 -0.10651 -0.2381
0.32254 -0.10518 -0.23843
0.32015 -0.1037 -0.23889
0.31801 -0.10178 -0.23887
0.31607 -0.09956 -0.2388
0.31407 -0.09746 -0.2392
0.31176 -0.09624 -0.24041
0.30952 -0.09514 -0.24188
0.30736 -0.09443 -0.24371
0.30493 -0.09372 -0.24523
0.30232 -0.0929 -0.24631
0.29992 -0.09231 -0.24787
0.29794 -0.09188 -0.24997
0.29604 -0.09205 -0.25218
0.29422 -0.09259 -0.25444
0.29204 -0.09249 -0.25646
0.28961 -0.09189 -0.25805
0.28733 -0.09132 -0.25978
0.28514 -0.0909 -0.26169
0.2826 -0.09087 -0.26312
0.28022 -0.09052 -0.26475
0.27831 -0.08949 -0.2667
0.2767 -0.08815 -0.26871
0.27476 -0.08699 -0.27056
0.27273 -0.08636 -0.27257
0.33331 -0.10893 -0.23592
0.33043 -0.10605 -0.2354
0.33309 -0.10685 -0.23444
0.33059 -0.10819 -0.23678
0.32776 -0.10524 -0.23636
0.32509 -0.10429 -0.2371
0.32254 -0.10301 -0.23752
0.32006 -0.10167 -0.23779
0.31793 -0.09977 -0.23789
0.31607 -0.09746 -0.2381
0.3143 -0.09528 -0.23895
0.31212 -0.09407 -0.24039
0.30991 -0.09297 -0.24194
0.30764 -0.09223 -0.24361
0.30532 -0.09156 -0.24528
0.30287 -0.09088 -0.24673
0.30052 -0.09035 -0.24837
0.29858 -0.08996 -0.25053
0.29659 -0.09009 -0.25266
0.29458 -0.09057 -0.25474
0.29243 -0.09049 -0.25676
0.2902 -0.09002 -0.25863
0.28815 -0.08969 -0.26075
0.28573 -0.08904 -0.26234
0.28312 -0.08896 -0.26363
0.28076 -0.08864 -0.2653
0.27878 -0.08758 -0.26715
0.27712 -0.08619 -0.26908
0.27517 -0.08505 -0.27096
0.27303 -0.08441 -0.27286
0.33578 -0.1077 -0.23358
0.33252 -0.10502 -0.2331
0.33524 -0.10578 -0.23232
0.32984 -0.10427 -0.23402
0.32721 -0.10342 -0.23502
0.32459 -0.10243 -0.23583
0.32206 -0.10114 -0.23629
0.3197 -0.0997 -0.23677
0.31773 -0.09766 -0.23721
0.3161 -0.09525 -0.23793
0.31446 -0.09307 -0.23904
0.31222 -0.09186 -0.2404
0.30988 -0.09078 -0.24178
0.30757 -0.09007 -0.24341
0.30542 -0.08942 -0.24528
0.30326 -0.08882 -0.24715
0.30104 -0.08839 -0.24901
0.29916 -0.08805 -0.25124
0.29699 -0.08809 -0.2532
0.29495 -0.08858 -0.25523
0.29293 -0.08858 -0.25735
0.29095 -0.08829 -0.25955
0.2887 -0.08778 -0.26144
0.28616 -0.08707 -0.2628
0.28363 -0.08705 -0.26422
0.28111 -0.08666 -0.26563
0.27899 -0.08556 -0.2673
0.27734 -0.0842 -0.26926
0.27548 -0.08311 -0.27124
0.27328 -0.08245 -0.27308
0.34068 -0.10763 -0.23083
0.33754 -0.10442 -0.23066
0.34031 -0.10538 -0.22999
0.33795 -0.10659 -0.23151
0.33475 -0.10377 -0.2313
0.33201 -0.10305 -0.23203
0.32937 -0.10229 -0.23301
0.32673 -0.10147 -0.23401
0.32411 -0.10047 -0.23487
0.32166 -0.09911 -0.23547
0.31944 -0.09756 -0.23622
0.31768 -0.09545 -0.23703
0.31619 -0.09304 -0.23799
0.31455 -0.09085 -0.2391
0.31221 -0.08965 -0.24031
0.30989 -0.0886 -0.24173
0.30774 -0.08792 -0.24357
0.30576 -0.08734 -0.24563
0.30372 -0.08681 -0.24764
0.30163 -0.08646 -0.24967
0.29963 -0.08606 -0.25179
0.29732 -0.08605 -0.25359
0.29528 -0.08654 -0.2556
0.2934 -0.0866 -0.25784
0.29141 -0.08628 -0.26003
0.28906 -0.08574 -0.26178
0.28648 -0.08505 -0.26306
0.28385 -0.08501 -0.26431
0.2814 -0.08467 -0.26583
0.27938 -0.08362 -0.26765
0.27771 -0.08227 -0.26959
0.27592 -0.08123 -0.27166
0.27377 -0.08059 -0.27356
0.34301 -0.10655 -0.22927
0.34016 -0.10326 -0.22876
0.34284 -0.10442 -0.22786
0.33736 -0.10239 -0.22943
0.33462 -0.10169 -0.23027
0.33194 -0.10094 -0.23112
0.32937 -0.10013 -0.23227
0.32683 -0.09927 -0.23351
0.3242 -0.09829 -0.23439
0.32174 -0.09692 -0.23505
0.31958 -0.09536 -0.23602
0.31788 -0.09324 -0.23692
0.3165 -0.09084 -0.23801
0.31479 -0.08866 -0.239
0.31247 -0.08748 -0.24025
0.31023 -0.08645 -0.2418
0.30818 -0.08582 -0.24375
0.30637 -0.08532 -0.246
0.30434 -0.08481 -0.24804
0.30234 -0.08451 -0.25018
0.30022 -0.08407 -0.25218
0.29789 -0.08407 -0.25397
0.29566 -0.08449 -0.25578
0.29384 -0.08455 -0.25808
0.29187 -0.08424 -0.26031
0.28936 -0.0837 -0.26184
0.2869 -0.08309 -0.26332
0.28432 -0.08308 -0.26468
0.28193 -0.08279 -0.26632
0.27987 -0.08173 -0.26809
0.27823 -0.0804 -0.27007
0.27648 -0.07937 -0.2722
[...]
CELL_DATA 37513
SCALARS brightness_temperature float
LOOKUP_TABLE default
POINT_DATA 19095
CELL_DATA 37513
SCALARS emission_angle float
LOOKUP_TABLE default
POINT_DATA 19095
CELL_DATA 37513
SCALARS incidence_angle float
LOOKUP_TABLE default
POINT_DATA 19095
CELL_DATA 37513
SCALARS phase_angle float
LOOKUP_TABLE default
POINT_DATA 19095
CELL_DATA 37513
SCALARS local_solar_time float
LOOKUP_TABLE default
POINT_DATA 19095
CELL_DATA 37513
SCALARS local_solar_time_normal_vector float
LOOKUP_TABLE default
CELL_DATA 37513
SCALARS pixel_x float
LOOKUP_TABLE default
POINT_DATA 19095
CELL_DATA 37513
SCALARS pixel_y float
LOOKUP_TABLE default
POINT_DATA 19095
CELL_DATA 37513
SCALARS longitude float
LOOKUP_TABLE default
POINT_DATA 19095
CELL_DATA 37513
SCALARS latitude float
LOOKUP_TABLE default
