# vtk DataFile Version 3.0
SHAPE_sfm_50k_v20200323
ASCII
DATASET POLYDATA
POINTS 400 float
0.23691 -0.42286 0.06823
0.24031 -0.42248 0.06652
0.23963 -0.4213 0.06905
0.23757 -0.42401 0.06568
0.24079 -0.42359 0.06391
0.23809 -0.42528 0.06316
0.24129 -0.42509 0.06148
0.23851 -0.42664 0.06064
0.24192 -0.4269 0.05933
0.23906 -0.42822 0.05828
0.24231 -0.42879 0.0572
0.24309 -0.42097 0.06726
0.24362 -0.42221 0.06472
0.24413 -0.42374 0.06234
0.24483 -0.42571 0.06035
0.24521 -0.42746 0.05807
0.24552 -0.42878 0.05552
0.24271 -0.43037 0.05482
0.24586 -0.42985 0.05286
0.24303 -0.4314 0.05214
0.24623 -0.43101 0.05024
0.2434 -0.43259 0.04954
0.24679 -0.43247 0.04781
0.24391 -0.43389 0.04702
0.24724 -0.43377 0.0453
0.24438 -0.43529 0.04456
0.24754 -0.4351 0.04277
0.24632 -0.42041 0.06494
0.24586 -0.41931 0.06758
0.24696 -0.42216 0.06271
0.24761 -0.42395 0.06054
0.24797 -0.42565 0.05825
0.24837 -0.42714 0.05582
0.24887 -0.42857 0.05337
0.24928 -0.42983 0.05081
0.24975 -0.43103 0.04823
0.25017 -0.43224 0.04565
0.25046 -0.43354 0.04311
0.25068 -0.43453 0.04043
0.24771 -0.43608 0.04007
0.25074 -0.43567 0.03779
0.24775 -0.43723 0.03742
0.25074 -0.4368 0.03513
0.24788 -0.43862 0.03491
0.25094 -0.43802 0.03253
0.24813 -0.43992 0.03236
0.25125 -0.439 0.02985
0.24836 -0.44075 0.02962
0.25162 -0.44001 0.02719
0.24871 -0.44172 0.02694
0.25189 -0.44075 0.02442
0.24911 -0.41872 0.06495
0.24874 -0.41781 0.06771
0.24977 -0.4205 0.06273
0.25056 -0.42256 0.06082
0.25088 -0.42414 0.05842
0.25126 -0.42555 0.05593
0.25183 -0.42712 0.05358
0.25228 -0.42848 0.05107
0.25269 -0.42952 0.0484
0.25314 -0.43078 0.04585
0.25346 -0.43208 0.0433
0.25383 -0.43341 0.04079
0.25389 -0.43446 0.03813
0.25383 -0.4354 0.03541
0.25393 -0.43639 0.03271
0.25424 -0.43737 0.03
0.25464 -0.43845 0.02737
0.25492 -0.43923 0.02462
0.25509 -0.43997 0.02185
0.25206 -0.44151 0.02166
0.25527 -0.44057 0.01903
0.25225 -0.44214 0.01885
0.2556 -0.44118 0.01623
0.25261 -0.44281 0.01606
0.25601 -0.44172 0.01345
0.25321 -0.44368 0.01337
0.25196 -0.41719 0.06552
0.25113 -0.41547 0.06779
0.25264 -0.41908 0.06344
0.25318 -0.42056 0.06103
0.25355 -0.42224 0.05874
0.25402 -0.42383 0.05639
0.25452 -0.42524 0.05394
0.25493 -0.4265 0.05139
0.25548 -0.42779 0.04887
0.25595 -0.42906 0.04632
0.25639 -0.43057 0.0439
0.25685 -0.43219 0.04159
0.25693 -0.43323 0.03895
0.25692 -0.43429 0.03629
0.25696 -0.43511 0.03354
0.25723 -0.43594 0.03079
0.25758 -0.43693 0.02811
0.25788 -0.43773 0.02537
0.25791 -0.43821 0.02254
0.25805 -0.43874 0.0197
0.25844 -0.43945 0.01693
0.25878 -0.43985 0.01411
0.25488 -0.41592 0.06624
0.25413 -0.4142 0.06844
0.2556 -0.41796 0.06428
0.25609 -0.4192 0.0617
0.25632 -0.42052 0.05916
0.25673 -0.42199 0.05674
0.25723 -0.42338 0.05428
0.25772 -0.42477 0.05181
0.25838 -0.42627 0.04945
0.25889 -0.42762 0.04698
0.25943 -0.4295 0.04487
0.26001 -0.43149 0.0428
0.26011 -0.43265 0.04009
0.26006 -0.43345 0.03732
0.25994 -0.43379 0.03445
0.26009 -0.43433 0.03164
0.26024 -0.43495 0.02882
0.26079 -0.43618 0.02625
0.26073 -0.43652 0.02339
0.26083 -0.43697 0.02055
0.26105 -0.43741 0.01773
0.26139 -0.43779 0.0149
0.25793 -0.4149 0.06678
0.25722 -0.41334 0.06907
0.25851 -0.41645 0.06446
0.25899 -0.4177 0.06194
0.25925 -0.41907 0.05946
0.25957 -0.42031 0.0569
0.26011 -0.42177 0.0545
0.26068 -0.42332 0.05216
0.26148 -0.42517 0.05012
0.2621 -0.42677 0.04779
0.26245 -0.42806 0.04528
0.26311 -0.42988 0.04315
0.2633 -0.43126 0.04051
0.26322 -0.43211 0.03771
0.26303 -0.43242 0.03484
0.26301 -0.43266 0.03199
0.26317 -0.43328 0.02921
0.26355 -0.43421 0.02652
0.2635 -0.43459 0.02369
0.26358 -0.43498 0.02086
0.26382 -0.43544 0.01805
0.26413 -0.43578 0.01524
0.2644 -0.4361 0.01243
0.26116 -0.41458 0.0671
0.26169 -0.41575 0.06455
0.26206 -0.41657 0.06186
0.26226 -0.41775 0.05927
0.26265 -0.41911 0.0568
0.26319 -0.42059 0.05444
0.26368 -0.42193 0.05199
0.26429 -0.4234 0.04964
0.2648 -0.42476 0.0472
0.26508 -0.42603 0.04468
0.26533 -0.42737 0.04219
0.26544 -0.42863 0.03965
0.26568 -0.42979 0.03706
0.26581 -0.43055 0.03431
0.26591 -0.43098 0.03151
0.26605 -0.43155 0.02873
0.26629 -0.43227 0.026
0.26635 -0.43278 0.02322
0.26649 -0.43326 0.02043
0.26664 -0.43358 0.01762
0.26684 -0.43375 0.01481
0.26705 -0.43398 0.01199
0.2637 -0.41271 0.06902
0.26449 -0.41441 0.06682
0.26494 -0.41539 0.06412
0.26524 -0.41598 0.06135
0.26544 -0.41708 0.05875
0.26582 -0.41839 0.05627
0.26625 -0.41954 0.05373
0.26643 -0.42036 0.05102
0.26656 -0.42129 0.04835
0.26698 -0.4226 0.04586
0.26737 -0.42394 0.0434
0.26768 -0.42531 0.04095
0.26799 -0.42675 0.03854
0.26812 -0.42774 0.03589
0.26853 -0.42881 0.03331
0.26875 -0.42938 0.03055
0.26896 -0.43006 0.02782
0.26915 -0.43068 0.02508
0.26924 -0.43122 0.02232
0.26927 -0.43151 0.01952
0.26936 -0.43171 0.01671
0.26962 -0.43195 0.01391
0.26653 -0.41126 0.06808
0.26718 -0.41266 0.06574
0.26775 -0.41382 0.06327
0.26827 -0.41492 0.06074
0.26857 -0.41622 0.05825
0.2689 -0.41736 0.0557
0.26921 -0.41823 0.05304
0.26928 -0.41884 0.05029
0.26928 -0.4195 0.04754
0.26949 -0.42059 0.04491
0.26991 -0.42198 0.04248
0.27026 -0.42336 0.04005
0.27063 -0.42484 0.03769
0.27092 -0.42599 0.03514
0.27131 -0.42703 0.03255
0.27169 -0.42785 0.0299
0.27191 -0.42849 0.02717
0.27208 -0.42906 0.02444
0.27222 -0.42969 0.02171
0.27227 -0.42997 0.01892
0.27236 -0.43014 0.01612
0.27255 -0.43025 0.01331
0.2695 -0.41008 0.06748
0.27018 -0.41151 0.06516
0.27069 -0.41256 0.06261
0.27125 -0.41371 0.06011
0.27162 -0.41513 0.05771
0.27196 -0.41624 0.05516
0.27221 -0.41698 0.05248
0.27225 -0.41744 0.04972
0.2722 -0.41797 0.04695
0.27233 -0.41891 0.04426
0.27267 -0.42021 0.04177
0.27293 -0.42145 0.03926
0.27321 -0.42281 0.03681
0.27371 -0.42421 0.03443
0.27426 -0.42548 0.03199
0.27461 -0.4262 0.0293
0.27514 -0.42743 0.02679
0.27525 -0.42786 0.02401
0.27531 -0.42833 0.02124
0.27545 -0.4288 0.01848
0.27541 -0.42866 0.01566
0.2757 -0.42894 0.01286
0.27185 -0.40782 0.06909
0.27254 -0.40918 0.06675
0.2731 -0.41037 0.06429
0.27371 -0.41158 0.06184
0.27433 -0.41284 0.05942
0.27467 -0.41416 0.05698
0.27506 -0.41535 0.05448
0.27534 -0.41612 0.05181
0.27536 -0.41648 0.04904
0.27532 -0.41694 0.04626
0.27545 -0.41785 0.04358
0.27572 -0.41899 0.04102
0.276 -0.42021 0.0385
0.27633 -0.42164 0.03611
0.27682 -0.42302 0.03373
0.2773 -0.42416 0.03123
0.27788 -0.42536 0.02876
0.27802 -0.42579 0.02598
0.27823 -0.42642 0.02327
0.27834 -0.42696 0.02053
0.27846 -0.42737 0.01778
0.27855 -0.42749 0.01498
0.2789 -0.42793 0.01222
0.27489 -0.407 0.06832
0.27558 -0.40833 0.06598
0.27614 -0.40948 0.06351
0.2768 -0.41081 0.06114
0.27737 -0.41194 0.05866
0.27773 -0.41325 0.05622
0.27812 -0.41442 0.05372
0.27843 -0.41523 0.05108
0.27855 -0.41585 0.04837
0.27858 -0.41654 0.04566
0.27871 -0.4174 0.043
0.27899 -0.41848 0.04044
0.27928 -0.41967 0.03794
0.27961 -0.42105 0.03553
0.28014 -0.42252 0.0332
0.28066 -0.42369 0.03069
0.28108 -0.42444 0.02801
0.2811 -0.42461 0.02518
0.28121 -0.42503 0.02243
0.2813 -0.42554 0.01969
0.28146 -0.42598 0.01695
0.28163 -0.42628 0.01418
0.27801 -0.40646 0.06762
0.27863 -0.4076 0.06518
0.27916 -0.40864 0.06267
0.27977 -0.40983 0.06023
0.28027 -0.41079 0.05768
0.28058 -0.41197 0.05519
0.28106 -0.41325 0.05277
0.2815 -0.41434 0.05026
0.28176 -0.41538 0.0477
0.28184 -0.41624 0.04506
0.28198 -0.41707 0.04243
0.28232 -0.41827 0.03997
0.28262 -0.4194 0.03746
0.28287 -0.42044 0.03489
0.28329 -0.42154 0.03236
0.2836 -0.42227 0.02968
0.28389 -0.42281 0.02698
0.28409 -0.42331 0.02425
0.28419 -0.42369 0.02151
0.2843 -0.42422 0.01879
0.28441 -0.42456 0.01604
0.28455 -0.4248 0.01328
0.28111 -0.40604 0.06678
0.28166 -0.40694 0.06423
0.28221 -0.408 0.06173
0.28271 -0.40889 0.05916
0.28319 -0.40978 0.05658
0.28356 -0.41106 0.05415
0.28409 -0.41241 0.05178
0.28451 -0.41344 0.04925
0.28478 -0.41445 0.04668
0.28484 -0.41523 0.04403
0.28506 -0.41621 0.04146
0.28537 -0.41727 0.03893
0.28561 -0.41827 0.03636
0.28582 -0.41923 0.03377
0.28615 -0.42017 0.03119
0.28652 -0.42098 0.02856
0.28686 -0.4216 0.02589
0.28706 -0.42208 0.02317
0.2872 -0.42253 0.02044
0.28724 -0.42289 0.0177
0.28733 -0.42318 0.01495
0.28365 -0.40451 0.06874
0.28416 -0.40518 0.06611
0.28465 -0.40593 0.0635
0.28518 -0.4069 0.06097
0.28575 -0.40794 0.05848
0.28631 -0.40895 0.05597
0.28665 -0.41013 0.0535
0.28709 -0.41126 0.05102
0.28746 -0.41219 0.04844
0.28752 -0.41282 0.04574
0.28762 -0.41366 0.04311
0.28788 -0.41467 0.04055
0.28806 -0.41552 0.03791
0.28851 -0.41682 0.03551
0.28883 -0.41795 0.03301
0.28916 -0.41886 0.03042
0.28959 -0.41979 0.02785
0.28999 -0.4205 0.0252
0.29014 -0.42086 0.02245
0.29024 -0.4212 0.01971
0.2903 -0.42159 0.01698
0.29045 -0.422 0.01426
0.28661 -0.40325 0.06839
0.28711 -0.4039 0.06576
0.28763 -0.40468 0.06317
0.28811 -0.40554 0.06061
0.28866 -0.40652 0.0581
0.28924 -0.40755 0.05561
0.28957 -0.40867 0.05311
0.28995 -0.40969 0.05058
0.29033 -0.41059 0.048
0.29053 -0.41147 0.0454
0.29063 -0.41231 0.04278
0.29085 -0.41325 0.0402
0.29113 -0.41423 0.03764
0.29155 -0.41546 0.03522
0.29193 -0.41668 0.03277
0.29227 -0.41759 0.03019
0.29271 -0.41851 0.02762
0.29305 -0.41907 0.02493
0.29327 -0.41959 0.02224
0.29341 -0.42002 0.01952
0.29348 -0.42042 0.01679
0.29362 -0.42078 0.01406
0.2896 -0.40195 0.06818
0.29007 -0.40255 0.06555
0.29057 -0.40329 0.06296
0.291 -0.40404 0.06037
0.29144 -0.40482 0.05778
0.29191 -0.40568 0.05523
0.29229 -0.40682 0.05276
0.29254 -0.40767 0.05016
0.29294 -0.40859 0.04761
0.29331 -0.40967 0.04512
0.29354 -0.41071 0.04259
0.29383 -0.41176 0.04008
0.2942 -0.41287 0.0376
0.29453 -0.41394 0.03511
0.295 -0.41524 0.03273
0.29536 -0.41618 0.03016
0.29578 -0.41705 0.02757
0.29611 -0.4176 0.0249
0.29641 -0.41828 0.02225
0.29658 -0.41878 0.01955
0.29664 -0.41915 0.01683
0.29675 -0.41944 0.01411
0.29486 -0.40541 0.04951
0.29539 -0.40644 0.04704
0.29588 -0.40761 0.04462
0.29626 -0.40882 0.0422
0.29668 -0.41002 0.03978
0.29704 -0.41111 0.0373
0.29747 -0.4123 0.03488
0.2978 -0.41337 0.03237
0.29821 -0.41434 0.02984
0.29856 -0.41511 0.02723
0.29895 -0.41574 0.0246
0.2993 -0.41648 0.02199
0.29957 -0.41714 0.01934
0.2996 -0.41747 0.01662
POLYGONS 720 2880
3 0 1 2
3 0 3 1
3 3 4 1
3 3 5 4
3 5 6 4
3 5 7 6
3 7 8 6
3 7 9 8
3 9 10 8
3 2 1 11
3 1 12 11
3 1 4 12
3 4 13 12
3 4 6 13
3 6 14 13
3 6 8 14
3 8 15 14
3 8 10 15
3 10 16 15
3 10 17 16
3 17 18 16
3 17 19 18
3 19 20 18
3 19 21 20
3 21 22 20
3 21 23 22
3 23 24 22
3 23 25 24
3 25 26 24
3 11 27 28
3 11 12 27
3 12 29 27
3 12 13 29
3 13 30 29
3 13 14 30
3 14 31 30
3 14 15 31
3 15 32 31
3 15 16 32
3 16 33 32
3 16 18 33
3 18 34 33
3 18 20 34
3 20 35 34
3 20 22 35
3 22 36 35
3 22 24 36
3 24 37 36
3 24 26 37
3 26 38 37
3 26 39 38
3 39 40 38
3 39 41 40
3 41 42 40
3 41 43 42
3 43 44 42
3 43 45 44
3 45 46 44
3 45 47 46
3 47 48 46
3 47 49 48
3 49 50 48
3 28 51 52
3 28 27 51
3 27 53 51
3 27 29 53
3 29 54 53
3 29 30 54
3 30 55 54
3 30 31 55
3 31 56 55
3 31 32 56
3 32 57 56
3 32 33 57
3 33 58 57
3 33 34 58
3 34 59 58
3 34 35 59
3 35 60 59
3 35 36 60
3 36 61 60
3 36 37 61
3 37 62 61
3 37 38 62
3 38 63 62
3 38 40 63
3 40 64 63
3 40 42 64
3 42 65 64
3 42 44 65
3 44 66 65
3 44 46 66
3 46 67 66
3 46 48 67
3 48 68 67
3 48 50 68
3 50 69 68
3 50 70 69
3 70 71 69
3 70 72 71
3 72 73 71
3 72 74 73
3 74 75 73
3 74 76 75
3 52 77 78
3 52 51 77
3 51 79 77
3 51 53 79
3 53 80 79
3 53 54 80
3 54 81 80
3 54 55 81
3 55 82 81
3 55 56 82
3 56 83 82
3 56 57 83
3 57 84 83
3 57 58 84
3 58 85 84
3 58 59 85
3 59 86 85
3 59 60 86
3 60 87 86
3 60 61 87
3 61 88 87
3 61 62 88
3 62 89 88
3 62 63 89
3 63 90 89
3 63 64 90
3 64 91 90
3 64 65 91
3 65 92 91
3 65 66 92
3 66 93 92
3 66 67 93
3 67 94 93
3 67 68 94
3 68 95 94
3 68 69 95
3 69 96 95
3 69 71 96
3 71 97 96
3 71 73 97
3 73 98 97
3 73 75 98
3 78 99 100
3 78 77 99
3 77 101 99
3 77 79 101
3 79 102 101
3 79 80 102
3 80 103 102
3 80 81 103
3 81 104 103
3 81 82 104
3 82 105 104
3 82 83 105
3 83 106 105
3 83 84 106
3 84 107 106
3 84 85 107
3 85 108 107
3 85 86 108
3 86 109 108
3 86 87 109
3 87 110 109
3 87 88 110
3 88 111 110
3 88 89 111
3 89 112 111
3 89 90 112
3 90 113 112
3 90 91 113
3 91 114 113
3 91 92 114
3 92 115 114
3 92 93 115
3 93 116 115
3 93 94 116
3 94 117 116
3 94 95 117
3 95 118 117
3 95 96 118
3 96 119 118
3 96 97 119
3 97 120 119
3 97 98 120
3 100 121 122
3 100 99 121
3 99 123 121
3 99 101 123
3 101 124 123
3 101 102 124
3 102 125 124
3 102 103 125
3 103 126 125
3 103 104 126
3 104 127 126
3 104 105 127
3 105 128 127
3 105 106 128
3 106 129 128
3 106 107 129
3 107 130 129
3 107 108 130
3 108 131 130
3 108 109 131
3 109 132 131
3 109 110 132
3 110 133 132
3 110 111 133
3 111 134 133
3 111 112 134
3 112 135 134
3 112 113 135
3 113 136 135
3 113 114 136
3 114 137 136
3 114 115 137
3 115 138 137
3 115 116 138
3 116 139 138
3 116 117 139
3 117 140 139
3 117 118 140
3 118 141 140
3 118 119 141
3 119 142 141
3 119 120 142
3 120 143 142
3 122 121 144
3 121 145 144
3 121 123 145
3 123 146 145
3 123 124 146
3 124 147 146
3 124 125 147
3 125 148 147
3 125 126 148
3 126 149 148
3 126 127 149
3 127 150 149
3 127 128 150
3 128 151 150
3 128 129 151
3 129 130 151
3 151 130 152
3 130 131 152
3 152 131 153
3 131 132 153
3 153 132 154
3 132 133 154
3 154 133 155
3 133 134 155
3 155 134 156
3 134 135 156
3 156 135 157
3 135 136 157
3 157 136 158
3 136 137 158
3 158 137 159
3 137 138 159
3 159 138 160
3 138 139 160
3 160 139 161
3 139 140 161
3 161 140 162
3 140 141 162
3 162 141 163
3 141 142 163
3 163 142 164
3 142 143 164
3 164 143 165
3 166 144 167
3 144 145 167
3 167 145 168
3 145 146 168
3 168 146 169
3 146 147 169
3 169 147 170
3 147 148 170
3 170 148 171
3 148 149 171
3 171 149 172
3 149 150 172
3 172 150 173
3 150 151 173
3 173 151 174
3 151 152 174
3 174 152 175
3 152 153 175
3 175 153 176
3 153 154 176
3 176 154 177
3 154 155 177
3 177 155 178
3 155 156 178
3 178 156 179
3 156 157 179
3 179 157 180
3 157 158 180
3 180 158 181
3 158 159 181
3 181 159 182
3 159 160 182
3 182 160 183
3 160 161 183
3 183 161 184
3 161 162 184
3 184 162 185
3 162 163 185
3 185 163 186
3 163 164 186
3 186 164 187
3 164 165 187
3 166 167 188
3 188 167 189
3 167 168 189
3 189 168 190
3 168 169 190
3 190 169 191
3 169 170 191
3 191 170 192
3 170 171 192
3 192 171 193
3 171 172 193
3 193 172 194
3 172 173 194
3 194 173 195
3 173 174 195
3 195 174 196
3 174 175 196
3 196 175 197
3 175 176 197
3 197 176 198
3 176 177 198
3 198 177 199
3 177 178 199
3 199 178 200
3 178 179 200
3 200 179 201
3 179 180 201
3 201 180 202
3 180 181 202
3 202 181 203
3 181 182 203
3 203 182 204
3 182 183 204
3 204 183 205
3 183 184 205
3 205 184 206
3 184 185 206
3 206 185 207
3 185 186 207
3 207 186 208
3 186 187 208
3 208 187 209
3 188 189 210
3 210 189 211
3 189 190 211
3 211 190 212
3 190 191 212
3 212 191 213
3 191 192 213
3 213 192 214
3 192 193 214
3 214 193 215
3 193 194 215
3 215 194 216
3 194 195 216
3 216 195 217
3 195 196 217
3 217 196 218
3 196 197 218
3 218 197 219
3 197 198 219
3 219 198 220
3 198 199 220
3 220 199 221
3 199 200 221
3 221 200 222
3 200 201 222
3 222 201 223
3 201 202 223
3 223 202 224
3 202 203 224
3 224 203 225
3 203 204 225
3 225 204 226
3 204 205 226
3 226 205 227
3 205 206 227
3 227 206 228
3 206 207 228
3 228 207 229
3 207 208 229
3 229 208 230
3 208 209 230
3 230 209 231
3 232 210 233
3 210 211 233
3 233 211 234
3 211 212 234
3 234 212 235
3 212 213 235
3 235 213 236
3 213 214 236
3 236 214 237
3 214 215 237
3 237 215 238
3 215 216 238
3 238 216 239
3 216 217 239
3 239 217 240
3 217 218 240
3 240 218 241
3 218 219 241
3 241 219 242
3 219 220 242
3 242 220 243
3 220 221 243
3 243 221 244
3 221 222 244
3 244 222 245
3 222 223 245
3 245 223 246
3 223 224 246
3 246 224 247
3 224 225 247
3 247 225 248
3 225 226 248
3 248 226 249
3 226 227 249
3 249 227 250
3 227 228 250
3 250 228 251
3 228 229 251
3 251 229 252
3 229 230 252
3 252 230 253
3 230 231 253
3 253 231 254
3 232 233 255
3 255 233 256
3 233 234 256
3 256 234 257
3 234 235 257
3 257 235 258
3 235 236 258
3 258 236 259
3 236 237 259
3 259 237 260
3 237 238 260
3 260 238 261
3 238 239 261
3 261 239 262
3 239 240 262
3 262 240 263
3 240 241 263
3 263 241 264
3 241 242 264
3 264 242 265
3 242 243 265
3 265 243 266
3 243 244 266
3 266 244 267
3 244 245 267
3 267 245 268
3 245 246 268
3 268 246 269
3 246 247 269
3 269 247 270
3 247 248 270
3 270 248 271
3 248 249 271
3 271 249 272
3 249 250 272
3 272 250 273
3 250 251 273
3 273 251 274
3 251 252 274
3 274 252 275
3 252 253 275
3 275 253 276
3 253 254 276
3 255 256 277
3 277 256 278
3 256 257 278
3 278 257 279
3 257 258 279
3 279 258 280
3 258 259 280
3 280 259 281
3 259 260 281
3 281 260 282
3 260 261 282
3 282 261 283
3 261 262 283
3 283 262 284
3 262 263 284
3 284 263 285
3 263 264 285
3 285 264 286
3 264 265 286
3 286 265 287
3 265 266 287
3 287 266 288
3 266 267 288
3 288 267 289
3 267 268 289
3 289 268 290
3 268 269 290
3 290 269 291
3 269 270 291
3 291 270 292
3 270 271 292
3 292 271 293
3 271 272 293
3 293 272 294
3 272 273 294
3 294 273 295
3 273 274 295
3 295 274 296
3 274 275 296
3 296 275 297
3 275 276 297
3 297 276 298
3 277 278 299
3 299 278 300
3 278 279 300
3 300 279 301
3 279 280 301
3 301 280 302
3 280 281 302
3 302 281 303
3 281 282 303
3 303 282 304
3 282 283 304
3 304 283 305
3 283 284 305
3 305 284 306
3 284 285 306
3 306 285 307
3 285 286 307
3 307 286 308
3 286 287 308
3 308 287 309
3 287 288 309
3 309 288 310
3 288 289 310
3 310 289 311
3 289 290 311
3 311 290 312
3 290 291 312
3 312 291 313
3 291 292 313
3 313 292 314
3 292 293 314
3 314 293 315
3 293 294 315
3 315 294 316
3 294 295 316
3 316 295 317
3 295 296 317
3 317 296 318
3 296 297 318
3 318 297 319
3 297 298 319
3 320 299 321
3 299 300 321
3 321 300 322
3 300 301 322
3 322 301 323
3 301 302 323
3 323 302 324
3 302 303 324
3 324 303 325
3 303 304 325
3 325 304 326
3 304 305 326
3 326 305 327
3 305 306 327
3 327 306 328
3 306 307 328
3 328 307 329
3 307 308 329
3 329 308 330
3 308 309 330
3 330 309 331
3 309 310 331
3 331 310 332
3 310 311 332
3 332 311 333
3 311 312 333
3 333 312 334
3 312 313 334
3 334 313 335
3 313 314 335
3 335 314 336
3 314 315 336
3 336 315 337
3 315 316 337
3 337 316 338
3 316 317 338
3 338 317 339
3 317 318 339
3 339 318 340
3 318 319 340
3 340 319 341
3 320 321 342
3 342 321 343
3 321 322 343
3 343 322 344
3 322 323 344
3 344 323 345
3 323 324 345
3 345 324 346
3 324 325 346
3 346 325 347
3 325 348 347
3 325 326 348
3 326 327 348
3 348 327 349
3 327 328 349
3 349 328 350
3 328 329 350
3 350 329 351
3 329 352 351
3 329 330 352
3 330 353 352
3 330 331 353
3 331 354 353
3 331 332 354
3 332 355 354
3 332 333 355
3 333 356 355
3 333 334 356
3 334 357 356
3 334 335 357
3 335 336 357
3 357 336 358
3 336 337 358
3 358 337 359
3 337 338 359
3 359 338 360
3 338 339 360
3 360 339 361
3 339 340 361
3 361 340 362
3 340 341 362
3 362 341 363
3 342 343 364
3 364 343 365
3 343 344 365
3 365 344 366
3 344 345 366
3 366 345 367
3 345 346 367
3 367 346 368
3 346 347 368
3 368 347 369
3 347 370 369
3 347 348 370
3 348 349 370
3 370 349 371
3 349 350 371
3 371 350 372
3 350 373 372
3 350 351 373
3 351 374 373
3 351 352 374
3 352 375 374
3 352 353 375
3 353 376 375
3 353 354 376
3 354 377 376
3 354 355 377
3 355 378 377
3 355 356 378
3 356 379 378
3 356 357 379
3 357 380 379
3 357 358 380
3 358 359 380
3 380 359 381
3 359 382 381
3 359 360 382
3 360 383 382
3 360 361 383
3 361 384 383
3 361 362 384
3 362 385 384
3 362 363 385
3 371 372 386
3 372 373 387
3 387 373 388
3 373 389 388
3 373 374 389
3 374 390 389
3 374 375 390
3 375 391 390
3 375 376 391
3 376 392 391
3 376 377 392
3 377 393 392
3 377 378 393
3 378 379 393
3 393 379 394
3 379 380 394
3 394 380 395
3 380 381 395
3 395 381 396
3 381 382 396
3 396 382 397
3 382 383 397
3 397 383 398
3 383 384 398
3 398 384 399
3 384 385 399
CELL_DATA 720
SCALARS brightness_temperature float
LOOKUP_TABLE default
POINT_DATA 400
CELL_DATA 720
SCALARS emission_angle float
LOOKUP_TABLE default
POINT_DATA 400
CELL_DATA 720
SCALARS incidence_angle float
LOOKUP_TABLE default
POINT_DATA 400
CELL_DATA 720
SCALARS phase_angle float
LOOKUP_TABLE default
POINT_DATA 400
CELL_DATA 720
SCALARS local_solar_time float
LOOKUP_TABLE default
POINT_DATA 400
CELL_DATA 720
SCALARS local_solar_time_normal_vector float
LOOKUP_TABLE default
CELL_DATA 720
SCALARS pixel_x float
LOOKUP_TABLE default
POINT_DATA 400
CELL_DATA 720
SCALARS pixel_y float
LOOKUP_TABLE default
POINT_DATA 400
CELL_DATA 720
SCALARS longitude float
LOOKUP_TABLE default
POINT_DATA 400
CELL_DATA 720
SCALARS latitude float
LOOKUP_TABLE default
