# vtk DataFile Version 3.0
SHAPE_sfm_50k_v20200323
ASCII
DATASET POLYDATA
POINTS 47888 float
-0.26317 0.25428 0.24437
-0.26398 0.25471 0.24212
-0.26538 0.25386 0.24333
-0.26607 0.25437 0.24107
-0.26474 0.25545 0.23995
-0.26691 0.255 0.2389
-0.26563 0.25623 0.23785
-0.26777 0.25567 0.23675
-0.26653 0.25697 0.23574
-0.26873 0.25631 0.23463
-0.26751 0.25767 0.23364
-0.26858 0.25876 0.23177
-0.26971 0.25724 0.23262
-0.26986 0.26004 0.23017
-0.2709 0.25836 0.23085
-0.27129 0.26143 0.2288
-0.2722 0.25959 0.22923
-0.27545 0.26491 0.22403
-0.27798 0.26438 0.22321
-0.27645 0.26313 0.22459
-0.2817 0.26987 0.21862
-0.28316 0.27098 0.21705
-0.28423 0.26917 0.21764
-0.28559 0.27016 0.2159
-0.28609 0.27349 0.21416
-0.28726 0.27463 0.21236
-0.28829 0.27263 0.21272
-0.29036 0.27777 0.20664
-0.29143 0.27879 0.20473
-0.29229 0.27671 0.20496
-0.29497 0.28222 0.19949
-0.2962 0.28346 0.19783
-0.29748 0.28161 0.19856
-0.30136 0.28837 0.1914
-0.30251 0.28949 0.18961
-0.30367 0.28743 0.19003
-0.30489 0.28855 0.18828
-0.30363 0.29051 0.18773
-0.30606 0.28975 0.18656
-0.32742 0.31388 -0.08164
-0.32605 0.31255 -0.08314
-0.32918 0.31179 -0.08191
-0.3249 0.31137 -0.08491
-0.32777 0.31043 -0.08337
-0.32661 0.30931 -0.08519
-0.32377 0.31007 -0.08663
-0.32556 0.30811 -0.087
-0.32278 0.30921 -0.08867
-0.32449 0.30721 -0.08898
-0.3218 0.30834 -0.09069
-0.32342 0.30627 -0.09093
-0.32075 0.30738 -0.09263
-0.32217 0.30516 -0.09266
-0.31976 0.30632 -0.09456
-0.32109 0.30405 -0.09451
-0.31874 0.30535 -0.09651
-0.32007 0.3031 -0.09646
-0.31789 0.30443 -0.09856
-0.31922 0.30216 -0.0985
-0.31692 0.3034 -0.10052
-0.31824 0.30113 -0.10046
-0.31621 0.3024 -0.10258
-0.31747 0.30011 -0.10249
-0.31544 0.30169 -0.10475
-0.31665 0.29938 -0.10464
-0.31474 0.30099 -0.10696
-0.31611 0.29875 -0.10692
-0.31353 0.29992 -0.10877
-0.31499 0.29776 -0.10885
-0.31221 0.29866 -0.11036
-0.31368 0.29657 -0.1105
-0.31122 0.29771 -0.11235
-0.31247 0.29549 -0.11228
-0.31047 0.29678 -0.11445
-0.30922 0.29566 -0.11622
-0.30877 0.29476 -0.11843
-0.31018 0.29332 -0.11595
-0.30843 0.29426 -0.12078
-0.3097 0.29243 -0.11816
-0.30919 0.29185 -0.12044
-0.30737 0.2934 -0.12279
-0.30861 0.29118 -0.12269
-0.3072 0.29018 -0.1244
-0.30614 0.29245 -0.12462
-0.30593 0.28914 -0.12617
-0.30499 0.29146 -0.1265
-0.30473 0.28822 -0.12806
-0.30387 0.29057 -0.12845
-0.30292 0.28967 -0.13047
-0.30211 0.28877 -0.13257
-0.3025 0.28635 -0.13192
-0.30093 0.28768 -0.13437
-0.30171 0.28534 -0.13396
-0.30062 0.28448 -0.13593
-0.29948 0.28667 -0.13601
-0.29819 0.28568 -0.13779
-0.29956 0.28366 -0.13793
-0.29707 0.28477 -0.13972
-0.29832 0.2827 -0.13977
-0.29599 0.28378 -0.14163
-0.29757 0.28193 -0.14198
-0.29486 0.2829 -0.14356
-0.29622 0.28091 -0.14373
-0.29366 0.28186 -0.14538
-0.29494 0.27982 -0.14545
-0.29236 0.28072 -0.14707
-0.29382 0.27885 -0.14735
-0.29121 0.27951 -0.1488
-0.29279 0.27777 -0.14924
-0.2899 0.27851 -0.15056
-0.29139 0.27669 -0.15089
-0.28869 0.2775 -0.15238
-0.29013 0.27562 -0.15265
-0.28751 0.27651 -0.15424
-0.28911 0.27481 -0.15468
-0.28664 0.27564 -0.15631
-0.2883 0.27403 -0.15682
-0.2856 0.2748 -0.15832
-0.28717 0.27309 -0.15873
-0.28466 0.27389 -0.16034
-0.2862 0.27217 -0.16074
-0.28378 0.27301 -0.1624
-0.28534 0.27132 -0.16282
-0.28316 0.27218 -0.16458
-0.28473 0.2705 -0.165
-0.2823 0.27153 -0.16673
-0.28381 0.26978 -0.16711
-0.28145 0.27079 -0.16886
-0.28289 0.26898 -0.16919
-0.28061 0.27004 -0.171
-0.2821 0.26831 -0.17137
-0.28003 0.26937 -0.17325
-0.2815 0.26764 -0.17362
-0.27963 0.26907 -0.17563
-0.28093 0.26722 -0.17594
-0.27988 0.26916 -0.17809
-0.28082 0.26707 -0.17836
-0.27934 0.26858 -0.18043
-0.27821 0.26731 -0.1822
-0.28031 0.26652 -0.18069
-0.27688 0.26625 -0.18392
-0.27922 0.26531 -0.18251
-0.27803 0.26437 -0.18438
-0.27574 0.26533 -0.18584
-0.27698 0.26354 -0.18639
-0.27472 0.26449 -0.18786
-0.27584 0.2626 -0.18829
-0.27378 0.26358 -0.18988
-0.27473 0.26157 -0.19017
-0.27283 0.26274 -0.19193
-0.27382 0.26077 -0.19226
-0.27179 0.26174 -0.19386
-0.27304 0.25998 -0.1944
-0.27078 0.26074 -0.19581
-0.2719 0.25889 -0.19622
-0.26997 0.25974 -0.19785
-0.26884 0.25883 -0.19978
-0.27079 0.25771 -0.19801
-0.2697 0.25685 -0.19998
-0.26773 0.25787 -0.20169
-0.26662 0.25692 -0.2036
-0.2686 0.2559 -0.20191
-0.26751 0.25496 -0.20384
-0.26556 0.25587 -0.20549
-0.26457 0.25496 -0.20749
-0.26635 0.25387 -0.20565
-0.26538 0.25298 -0.20768
-0.26372 0.25403 -0.20955
-0.26451 0.25205 -0.20972
-0.26284 0.25309 -0.21159
-0.26367 0.25115 -0.2118
-0.26177 0.25195 -0.21343
-0.26262 0.25001 -0.21365
-0.26037 0.25085 -0.21507
-0.26137 0.24902 -0.21545
-0.25923 0.24986 -0.21695
-0.2602 0.24801 -0.2173
-0.25821 0.24892 -0.21892
-0.25921 0.24711 -0.21931
-0.25757 0.24809 -0.2211
-0.25834 0.24617 -0.22135
-0.25653 0.24717 -0.22307
-0.25732 0.24528 -0.22334
-0.25562 0.24625 -0.2251
-0.25663 0.24446 -0.2255
-0.25514 0.24553 -0.22735
-0.25589 0.24362 -0.22764
-0.25423 0.24446 -0.22931
-0.25491 0.24253 -0.22956
-0.25336 0.24367 -0.23143
-0.25405 0.24177 -0.23168
-0.25136 0.23928 -0.23786
-0.24977 0.24018 -0.23934
-0.2501 0.2382 -0.23961
-0.24843 0.23904 -0.241
-0.24901 0.23719 -0.24151
-0.24737 0.23805 -0.24294
-0.2479 0.23617 -0.24341
-0.24643 0.23706 -0.24492
-0.24716 0.23529 -0.24554
-0.26459 0.25358 0.24562
-0.26674 0.25325 0.24472
-0.26746 0.25375 0.24246
-0.26823 0.25412 0.24021
-0.26899 0.2545 0.23796
-0.2699 0.25505 0.23579
-0.27078 0.25579 0.23367
-0.27191 0.25678 0.23178
-0.27315 0.2579 0.23004
-0.27447 0.25899 0.22834
-0.27357 0.26073 0.22761
-0.27583 0.26012 0.2267
-0.27498 0.26195 0.22608
-0.27731 0.2613 0.22521
-0.28036 0.26366 0.22233
-0.27881 0.26248 0.22374
-0.29945 0.28048 0.197
-0.29836 0.27939 0.19888
-0.30136 0.28521 0.19365
-0.30245 0.28628 0.19176
-0.30344 0.28415 0.19227
-0.30479 0.28541 0.19071
-0.30609 0.28662 0.18908
-0.30725 0.2878 0.18733
-0.32845 0.30748 -0.08594
-0.32734 0.30624 -0.08769
-0.32619 0.30526 -0.08959
-0.32491 0.30411 -0.09128
-0.3235 0.3029 -0.09281
-0.32239 0.30178 -0.09462
-0.32136 0.30082 -0.09657
-0.32026 0.29975 -0.09843
-0.31932 0.29875 -0.10041
-0.31862 0.29776 -0.1025
-0.31772 0.297 -0.1046
-0.31675 0.29621 -0.10666
-0.31578 0.2953 -0.10866
-0.3147 0.29423 -0.11053
-0.31374 0.29328 -0.11254
-0.31118 0.29434 -0.11397
-0.3123 0.29205 -0.11407
-0.31123 0.291 -0.11599
-0.31045 0.29 -0.11805
-0.30974 0.28939 -0.12028
-0.30774 0.28772 -0.1243
-0.30674 0.28675 -0.12626
-0.30567 0.28588 -0.12824
-0.30355 0.28728 -0.12994
-0.30444 0.28491 -0.13008
-0.30348 0.28403 -0.13211
-0.3026 0.28303 -0.13412
-0.30166 0.28226 -0.1362
-0.30051 0.28141 -0.13813
-0.29938 0.28053 -0.14007
-0.2983 0.27957 -0.142
-0.29725 0.27874 -0.144
-0.2962 0.27785 -0.14597
-0.29514 0.27694 -0.14794
-0.29397 0.27574 -0.14967
-0.29267 0.27477 -0.15146
-0.29146 0.27376 -0.1533
-0.29061 0.27316 -0.15549
-0.2897 0.27227 -0.15753
-0.28857 0.27134 -0.15945
-0.2876 0.27044 -0.16147
-0.28677 0.26964 -0.16359
-0.28611 0.26875 -0.16572
-0.28524 0.2681 -0.16787
-0.28434 0.26734 -0.16998
-0.28351 0.26664 -0.17213
-0.28295 0.26602 -0.1744
-0.28224 0.26546 -0.17663
-0.28169 0.26503 -0.17894
-0.28094 0.26436 -0.18111
-0.28013 0.26333 -0.18313
-0.279 0.26245 -0.18506
-0.27791 0.2616 -0.18704
-0.27666 0.26059 -0.18883
-0.27562 0.25962 -0.19079
-0.27467 0.2588 -0.19285
-0.27383 0.25799 -0.19495
-0.27278 0.25698 -0.19687
-0.27154 0.25572 -0.19852
-0.27041 0.25485 -0.20047
-0.26933 0.25392 -0.20242
-0.26813 0.25293 -0.20425
-0.26706 0.25188 -0.20615
-0.2661 0.25102 -0.20819
-0.26515 0.25007 -0.21018
-0.26424 0.24914 -0.21221
-0.26335 0.24809 -0.21419
-0.26221 0.24718 -0.2161
-0.2611 0.24623 -0.21802
-0.26012 0.24536 -0.22005
-0.25917 0.24437 -0.22202
-0.25819 0.24352 -0.22405
-0.25744 0.24267 -0.22619
-0.25648 0.2417 -0.22818
-0.2555 0.24064 -0.23011
-0.25332 0.24108 -0.23387
-0.2545 0.23982 -0.23214
-0.25248 0.24032 -0.23599
-0.25334 0.23904 -0.23411
-0.25245 0.23829 -0.23622
-0.2516 0.23731 -0.23825
-0.25051 0.23629 -0.24014
-0.24947 0.23531 -0.24208
-0.24844 0.23435 -0.24405
-0.26895 0.25325 0.24376
-0.26978 0.25374 0.24154
-0.27051 0.25386 0.23923
-0.27113 0.25379 0.23688
-0.27196 0.25441 0.23469
-0.27306 0.25533 0.23274
-0.27424 0.25633 0.23088
-0.27553 0.25734 0.22911
-0.27682 0.25837 0.22734
-0.27822 0.25944 0.22568
-0.27967 0.26056 0.2241
-0.30854 0.28899 0.18568
-0.30982 0.28699 0.18613
-0.32941 0.30491 -0.0889
-0.3279 0.30326 -0.08989
-0.32636 0.30191 -0.0911
-0.32492 0.3007 -0.09259
-0.32386 0.29961 -0.09445
-0.32295 0.29875 -0.09652
-0.32181 0.29764 -0.09836
-0.32082 0.2966 -0.1003
-0.32008 0.2956 -0.10237
-0.3192 0.29485 -0.10451
-0.31798 0.29395 -0.10641
-0.31686 0.29297 -0.10831
-0.31587 0.29196 -0.11027
-0.31483 0.29099 -0.11222
-0.31364 0.28989 -0.11401
-0.3126 0.28885 -0.11594
-0.3118 0.28784 -0.11799
-0.31059 0.28701 -0.11991
-0.30944 0.28622 -0.12189
-0.30886 0.28866 -0.12239
-0.30846 0.2853 -0.12391
-0.30748 0.28435 -0.1259
-0.30651 0.28351 -0.12795
-0.30562 0.28269 -0.13005
-0.30482 0.28192 -0.1322
-0.30376 0.28083 -0.13409
-0.30279 0.28008 -0.13617
-0.30172 0.27928 -0.13818
-0.30053 0.27839 -0.14009
-0.29947 0.27744 -0.14205
-0.29842 0.27662 -0.14407
-0.29741 0.27577 -0.14609
-0.29647 0.27496 -0.14817
-0.29555 0.27402 -0.1502
-0.29417 0.27298 -0.1519
-0.29305 0.27209 -0.15386
-0.29213 0.27141 -0.15599
-0.29117 0.27046 -0.158
-0.29012 0.26964 -0.16001
-0.28917 0.26879 -0.16207
-0.28828 0.26794 -0.16415
-0.2877 0.26717 -0.16637
-0.2869 0.2666 -0.16858
-0.28584 0.26565 -0.17056
-0.28502 0.265 -0.17274
-0.2844 0.26433 -0.17498
-0.28367 0.26375 -0.17721
-0.28293 0.26318 -0.17943
-0.2821 0.26246 -0.18158
-0.28122 0.2614 -0.18355
-0.28008 0.26052 -0.18549
-0.27887 0.2596 -0.18736
-0.27767 0.25863 -0.18923
-0.27669 0.25771 -0.19124
-0.27559 0.25681 -0.1932
-0.27469 0.25598 -0.19528
-0.27357 0.25494 -0.19715
-0.27254 0.25384 -0.19904
-0.27134 0.25294 -0.20094
-0.27024 0.25201 -0.20288
-0.26901 0.251 -0.20469
-0.26796 0.24998 -0.20662
-0.26698 0.24911 -0.20865
-0.26603 0.24818 -0.21068
-0.26517 0.24729 -0.21275
-0.26439 0.24637 -0.21485
-0.2632 0.24542 -0.21674
-0.26216 0.24454 -0.21873
[...]
CELL_DATA 86911
SCALARS brightness_temperature float
LOOKUP_TABLE default
POINT_DATA 47888
CELL_DATA 86911
SCALARS emission_angle float
LOOKUP_TABLE default
POINT_DATA 47888
CELL_DATA 86911
SCALARS incidence_angle float
LOOKUP_TABLE default
POINT_DATA 47888
CELL_DATA 86911
SCALARS phase_angle float
LOOKUP_TABLE default
POINT_DATA 47888
CELL_DATA 86911
SCALARS local_solar_time float
LOOKUP_TABLE default
POINT_DATA 47888
CELL_DATA 86911
SCALARS local_solar_time_normal_vector float
LOOKUP_TABLE default
CELL_DATA 86911
SCALARS pixel_x float
LOOKUP_TABLE default
POINT_DATA 47888
CELL_DATA 86911
SCALARS pixel_y float
LOOKUP_TABLE default
POINT_DATA 47888
CELL_DATA 86911
SCALARS longitude float
LOOKUP_TABLE default
POINT_DATA 47888
CELL_DATA 86911
SCALARS latitude float
LOOKUP_TABLE default
