# vtk DataFile Version 3.0
SHAPE_sfm_50k_v20200323
ASCII
DATASET POLYDATA
POINTS 3199 float
0.05175 -0.42723 -0.15158
0.04895 -0.42584 -0.1543
0.05177 -0.42518 -0.15394
0.05113 -0.42326 -0.15631
0.04834 -0.42397 -0.15673
0.05036 -0.42136 -0.15868
0.04761 -0.42219 -0.1592
0.04984 -0.41951 -0.16117
0.05539 -0.44201 -0.13185
0.05789 -0.44034 -0.1342
0.05842 -0.44215 -0.13172
0.05488 -0.43995 -0.13414
0.0571 -0.43822 -0.13635
0.05409 -0.438 -0.13647
0.05642 -0.43625 -0.13869
0.05344 -0.43613 -0.1389
0.05593 -0.43412 -0.14094
0.05297 -0.43423 -0.14136
0.05534 -0.43219 -0.14336
0.05245 -0.43253 -0.14394
0.05471 -0.43056 -0.14596
0.05181 -0.43078 -0.14645
0.0543 -0.42855 -0.14834
0.05149 -0.42903 -0.14904
0.05448 -0.42656 -0.15075
0.0545 -0.42452 -0.15313
0.05392 -0.42279 -0.15566
0.05324 -0.42119 -0.15825
0.05268 -0.41926 -0.16065
0.06075 -0.44769 -0.12411
0.05841 -0.44627 -0.12702
0.06134 -0.44563 -0.12639
0.06153 -0.44364 -0.12881
0.05854 -0.44413 -0.1293
0.06146 -0.44196 -0.13148
0.06091 -0.44033 -0.13405
0.06009 -0.43845 -0.13638
0.0594 -0.43633 -0.13857
0.05887 -0.43401 -0.14063
0.05829 -0.43212 -0.14309
0.05764 -0.43036 -0.14559
0.05717 -0.42813 -0.14776
0.0573 -0.42601 -0.15007
0.05732 -0.42401 -0.15249
0.05671 -0.42228 -0.15502
0.05597 -0.42058 -0.15753
0.05548 -0.41881 -0.16007
0.05536 -0.41708 -0.16269
0.06247 -0.45191 -0.11621
0.05987 -0.45094 -0.1189
0.06285 -0.45024 -0.11883
0.06011 -0.44939 -0.12159
0.06304 -0.44849 -0.12141
0.06368 -0.44682 -0.12398
0.06437 -0.44519 -0.12655
0.06458 -0.44353 -0.1292
0.06446 -0.44223 -0.13204
0.06387 -0.44062 -0.13467
0.06306 -0.43837 -0.1367
0.0623 -0.4358 -0.13835
0.06179 -0.43363 -0.14058
0.06117 -0.43157 -0.14285
0.06039 -0.4294 -0.14497
0.05994 -0.42726 -0.14723
0.0601 -0.42521 -0.14961
0.06014 -0.42331 -0.1521
0.05948 -0.42147 -0.15454
0.0587 -0.41968 -0.157
0.05832 -0.41836 -0.15985
0.05816 -0.41659 -0.16241
0.06688 -0.46119 -0.10132
0.06377 -0.4606 -0.10344
0.06668 -0.45958 -0.10396
0.06316 -0.45905 -0.10608
0.06607 -0.45804 -0.10659
0.06251 -0.45734 -0.1086
0.06539 -0.45622 -0.10904
0.06214 -0.45545 -0.11106
0.06504 -0.45436 -0.11152
0.06208 -0.45368 -0.11366
0.06497 -0.45269 -0.11417
0.06532 -0.45081 -0.11664
0.06568 -0.44905 -0.1192
0.06589 -0.44743 -0.12186
0.06656 -0.44594 -0.12453
0.06727 -0.44446 -0.12717
0.06749 -0.44313 -0.12996
0.06741 -0.44209 -0.13295
0.06689 -0.4402 -0.13552
0.06589 -0.43744 -0.13686
0.06507 -0.43479 -0.13838
0.06454 -0.43253 -0.14053
0.06395 -0.43055 -0.14286
0.06323 -0.42849 -0.14509
0.06279 -0.4264 -0.14737
0.06292 -0.42437 -0.14976
0.06295 -0.42249 -0.15224
0.06226 -0.42057 -0.15459
0.06149 -0.41883 -0.1571
0.06103 -0.41738 -0.15985
0.06085 -0.4156 -0.16239
0.07052 -0.46984 -0.08569
0.06764 -0.4693 -0.08807
0.07055 -0.46799 -0.08819
0.06763 -0.46783 -0.09083
0.07047 -0.46635 -0.09082
0.06712 -0.46603 -0.09334
0.07006 -0.46489 -0.09354
0.06678 -0.46438 -0.09597
0.06977 -0.46343 -0.09627
0.06674 -0.46281 -0.09867
0.06971 -0.46183 -0.09893
0.06983 -0.46019 -0.10156
0.06965 -0.45868 -0.10427
0.06901 -0.45706 -0.10684
0.06839 -0.4555 -0.10946
0.06805 -0.45376 -0.11199
0.06793 -0.45186 -0.11445
0.06829 -0.45002 -0.11694
0.06866 -0.4483 -0.11951
0.06884 -0.44664 -0.12213
0.06947 -0.44507 -0.12472
0.07015 -0.4435 -0.12731
0.07038 -0.44221 -0.13013
0.06997 -0.44039 -0.13259
0.0691 -0.43808 -0.13437
0.06838 -0.43576 -0.13635
0.06782 -0.4336 -0.13855
0.06731 -0.43141 -0.14074
0.06674 -0.42959 -0.14321
0.06603 -0.42769 -0.14555
0.06559 -0.42559 -0.14779
0.06569 -0.42345 -0.15006
0.06569 -0.42148 -0.15246
0.06502 -0.41967 -0.15491
0.06425 -0.41798 -0.1574
0.06373 -0.41634 -0.15999
0.06348 -0.41442 -0.16245
0.07366 -0.47692 -0.07301
0.07089 -0.47665 -0.07532
0.07386 -0.47545 -0.07572
0.07072 -0.47503 -0.07795
0.07368 -0.47382 -0.07834
0.07055 -0.47307 -0.08038
0.07358 -0.47211 -0.08092
0.07055 -0.47159 -0.08313
0.07352 -0.47048 -0.08356
0.07348 -0.4687 -0.08608
0.07351 -0.46686 -0.08856
0.07339 -0.46512 -0.09113
0.07297 -0.46368 -0.09385
0.0727 -0.46231 -0.09662
0.07264 -0.46074 -0.09928
0.07273 -0.45904 -0.10186
0.07252 -0.45747 -0.10452
0.07196 -0.45615 -0.10726
0.07132 -0.45457 -0.10985
0.071 -0.45297 -0.11247
0.07083 -0.45085 -0.11476
0.07124 -0.44922 -0.11738
0.07162 -0.44765 -0.12002
0.07177 -0.44582 -0.1225
0.0723 -0.44392 -0.12488
0.07299 -0.44241 -0.1275
0.07303 -0.44069 -0.13005
0.0724 -0.43857 -0.13218
0.07168 -0.43637 -0.13423
0.07112 -0.43442 -0.13663
0.07062 -0.43255 -0.13905
0.07015 -0.43057 -0.14136
0.06951 -0.42861 -0.14367
0.06874 -0.42657 -0.14587
0.06831 -0.42451 -0.14814
0.06843 -0.42248 -0.15048
0.06843 -0.42053 -0.15289
0.06777 -0.41879 -0.15538
0.067 -0.41716 -0.15789
0.06644 -0.41536 -0.16035
0.06617 -0.41335 -0.16271
0.07521 -0.47959 -0.06864
0.07308 -0.47865 -0.07051
0.07621 -0.47776 -0.07092
0.07678 -0.47604 -0.07341
0.0769 -0.47433 -0.07597
0.07674 -0.47287 -0.07869
0.07667 -0.47137 -0.08139
0.07655 -0.46952 -0.08386
0.07651 -0.46775 -0.08639
0.07654 -0.46592 -0.08887
0.07638 -0.46405 -0.09134
0.07592 -0.46253 -0.094
0.07559 -0.46107 -0.09671
0.07548 -0.4594 -0.0993
0.07563 -0.45787 -0.10198
0.07545 -0.4564 -0.10469
0.07489 -0.45512 -0.10745
0.07429 -0.45366 -0.1101
0.07389 -0.4518 -0.11253
0.07382 -0.45013 -0.11514
0.07422 -0.4486 -0.11779
0.07461 -0.44707 -0.12046
0.07469 -0.4449 -0.12269
0.07523 -0.44307 -0.12509
0.07581 -0.44128 -0.12753
0.07577 -0.43938 -0.12995
0.0753 -0.43755 -0.13239
0.07458 -0.43539 -0.13453
0.07403 -0.43368 -0.13707
0.07351 -0.43208 -0.13965
0.07303 -0.43049 -0.14227
0.07239 -0.42804 -0.14405
0.07158 -0.42575 -0.146
0.07115 -0.42375 -0.14834
0.07126 -0.42166 -0.15062
0.07126 -0.41975 -0.15308
0.07061 -0.41817 -0.15564
0.06981 -0.41646 -0.15807
0.06926 -0.41475 -0.16058
0.06899 -0.4127 -0.1629
0.08171 -0.50066 -0.02939
0.08444 -0.49796 -0.0319
0.08456 -0.49885 -0.02896
0.08151 -0.49964 -0.03229
0.08432 -0.49727 -0.03489
0.0814 -0.49899 -0.03533
0.08394 -0.49652 -0.03783
0.08098 -0.49825 -0.03827
0.08374 -0.49528 -0.04062
0.08086 -0.49714 -0.0411
0.08373 -0.49375 -0.04327
0.08076 -0.49547 -0.04364
0.08362 -0.49213 -0.04587
0.08045 -0.49348 -0.04597
0.08326 -0.49058 -0.0485
0.08008 -0.49182 -0.04856
0.08255 -0.489 -0.05103
0.07936 -0.49019 -0.05106
0.08139 -0.48763 -0.05354
0.07818 -0.48873 -0.05352
0.0801 -0.48631 -0.056
0.07688 -0.48733 -0.05593
0.07885 -0.48486 -0.05838
0.07566 -0.48592 -0.05837
0.0778 -0.48329 -0.06081
0.07462 -0.48433 -0.06081
0.07743 -0.48185 -0.06352
0.0742 -0.48271 -0.06342
0.07454 -0.48108 -0.06603
0.07775 -0.48027 -0.06614
0.0784 -0.47876 -0.06872
0.0794 -0.47703 -0.07107
0.07996 -0.4754 -0.07362
0.08005 -0.47362 -0.07613
0.0799 -0.47225 -0.0789
0.07977 -0.47054 -0.08146
0.07962 -0.46859 -0.08386
0.07962 -0.46702 -0.08652
0.07965 -0.46524 -0.08903
0.07951 -0.46343 -0.09152
0.07901 -0.46184 -0.09412
0.07862 -0.46015 -0.09667
0.07852 -0.45855 -0.09931
0.07862 -0.45689 -0.1019
0.07844 -0.45549 -0.10465
0.07786 -0.45418 -0.10737
0.07731 -0.45293 -0.11014
0.07695 -0.45123 -0.11267
0.07682 -0.44941 -0.11515
0.07717 -0.44772 -0.11771
0.07756 -0.44619 -0.12036
0.07771 -0.44437 -0.12285
0.07819 -0.44231 -0.12505
0.07868 -0.44025 -0.12727
0.07859 -0.43823 -0.1296
0.07808 -0.43635 -0.13201
0.07752 -0.43472 -0.13458
0.07697 -0.43319 -0.13721
0.07645 -0.43177 -0.13989
0.07598 -0.4301 -0.14247
0.07529 -0.42756 -0.14413
0.07444 -0.42507 -0.14582
0.07403 -0.42316 -0.14827
0.07416 -0.42116 -0.15064
0.07419 -0.41962 -0.15332
0.07352 -0.41802 -0.15587
0.07268 -0.41608 -0.15811
0.07214 -0.41444 -0.16067
0.07183 -0.41231 -0.16291
0.08737 -0.49622 -0.03162
0.08738 -0.49691 -0.02863
0.08724 -0.49552 -0.0346
0.08696 -0.49492 -0.03758
0.08684 -0.49383 -0.0404
0.08685 -0.49239 -0.0431
0.08681 -0.491 -0.04584
0.0865 -0.48963 -0.04857
0.08582 -0.48818 -0.05117
0.08464 -0.48676 -0.05363
0.08331 -0.48536 -0.05601
0.08206 -0.48395 -0.05841
0.08096 -0.48225 -0.06074
0.08056 -0.48075 -0.06341
0.08085 -0.4791 -0.06599
0.08145 -0.47748 -0.06851
0.08248 -0.47593 -0.07097
0.08303 -0.47431 -0.07351
0.08313 -0.47263 -0.07608
0.08296 -0.47124 -0.07882
0.08282 -0.46953 -0.08138
0.08277 -0.46798 -0.08404
0.08276 -0.46648 -0.08673
0.08279 -0.4647 -0.08923
0.08265 -0.46304 -0.09182
0.08215 -0.46145 -0.09441
0.08173 -0.45963 -0.09685
0.08163 -0.45813 -0.09954
0.08173 -0.45643 -0.1021
0.0815 -0.45484 -0.10473
0.0809 -0.45348 -0.10743
0.08031 -0.45215 -0.11014
0.07995 -0.45046 -0.11268
0.07979 -0.44855 -0.11509
0.08016 -0.44696 -0.1177
0.08053 -0.4454 -0.12033
0.08067 -0.4436 -0.12282
0.08115 -0.44155 -0.12503
0.08166 -0.43952 -0.12728
0.08156 -0.43747 -0.12958
0.08102 -0.43552 -0.13192
0.08042 -0.43391 -0.13451
0.07986 -0.43247 -0.13717
0.07927 -0.4309 -0.13973
0.07883 -0.4292 -0.14229
0.0781 -0.42666 -0.14393
0.07731 -0.42437 -0.14587
0.07688 -0.4224 -0.14825
0.07705 -0.42077 -0.15087
0.07713 -0.41936 -0.15367
0.07634 -0.41727 -0.15582
0.07543 -0.41525 -0.15797
0.07483 -0.41342 -0.16039
0.07462 -0.41163 -0.16289
0.09035 -0.49449 -0.03131
0.09036 -0.4952 -0.02832
0.09035 -0.49404 -0.03436
0.09021 -0.49388 -0.03742
0.09012 -0.49289 -0.0403
0.0901 -0.49138 -0.04296
0.09001 -0.4899 -0.04565
0.08969 -0.48857 -0.04839
0.08904 -0.48726 -0.05107
0.08791 -0.48602 -0.05366
0.08654 -0.48451 -0.05595
0.08526 -0.48302 -0.05827
0.08416 -0.48132 -0.06057
0.08374 -0.47978 -0.06323
0.08405 -0.47826 -0.06588
0.08465 -0.47668 -0.06843
0.08568 -0.47522 -0.07093
0.08621 -0.47357 -0.07346
0.08626 -0.47184 -0.07599
0.08605 -0.47033 -0.07867
0.08597 -0.46889 -0.08139
0.08599 -0.46775 -0.08427
0.08591 -0.46599 -0.08681
0.08594 -0.46425 -0.08934
0.08585 -0.46312 -0.09226
0.08529 -0.46109 -0.09455
0.08484 -0.45912 -0.09689
0.08474 -0.45767 -0.0996
0.08485 -0.45613 -0.10226
0.08462 -0.45455 -0.10488
0.08397 -0.45295 -0.10742
0.08329 -0.45125 -0.1099
0.08295 -0.44969 -0.11252
0.08285 -0.44805 -0.11511
0.08318 -0.44634 -0.11764
0.08345 -0.44446 -0.12006
0.08359 -0.44268 -0.12256
0.08411 -0.4408 -0.12489
0.08465 -0.43892 -0.12725
0.08456 -0.43692 -0.12959
0.08404 -0.43514 -0.13203
0.08337 -0.43329 -0.13441
0.08271 -0.43164 -0.13691
[...]
CELL_DATA 6164
SCALARS brightness_temperature float
LOOKUP_TABLE default
POINT_DATA 3199
CELL_DATA 6164
SCALARS emission_angle float
LOOKUP_TABLE default
POINT_DATA 3199
CELL_DATA 6164
SCALARS incidence_angle float
LOOKUP_TABLE default
POINT_DATA 3199
CELL_DATA 6164
SCALARS phase_angle float
LOOKUP_TABLE default
POINT_DATA 3199
CELL_DATA 6164
SCALARS local_solar_time float
LOOKUP_TABLE default
POINT_DATA 3199
CELL_DATA 6164
SCALARS local_solar_time_normal_vector float
LOOKUP_TABLE default
CELL_DATA 6164
SCALARS pixel_x float
LOOKUP_TABLE default
POINT_DATA 3199
CELL_DATA 6164
SCALARS pixel_y float
LOOKUP_TABLE default
POINT_DATA 3199
CELL_DATA 6164
SCALARS longitude float
LOOKUP_TABLE default
POINT_DATA 3199
CELL_DATA 6164
SCALARS latitude float
LOOKUP_TABLE default
