# vtk DataFile Version 3.0
SHAPE_spc_800k_v20200323
ASCII
DATASET POLYDATA
POINTS 1554 float
0.34948 0.01889 -0.24911
0.34747 0.01724 -0.25053
0.34671 0.01941 -0.25029
0.35329 0.02018 -0.24486
0.3519 0.01836 -0.2474
0.35105 0.02048 -0.24688
0.34863 0.021 -0.24855
0.34612 0.02165 -0.25011
0.35724 0.02181 -0.24052
0.35577 0.02 -0.24313
0.3549 0.02208 -0.2424
0.3525 0.02232 -0.24419
0.35022 0.02257 -0.24615
0.34799 0.0232 -0.24805
0.34579 0.02395 -0.24996
0.37278 0.02494 -0.22289
0.37065 0.02722 -0.22498
0.37288 0.02736 -0.223
0.3705 0.02481 -0.22482
0.36852 0.02671 -0.22699
0.36859 0.02429 -0.22707
0.36656 0.02581 -0.22908
0.36631 0.02344 -0.22885
0.36427 0.02508 -0.23093
0.36408 0.02269 -0.23078
0.36231 0.02488 -0.2332
0.36215 0.02249 -0.23308
0.36013 0.02473 -0.23526
0.36033 0.02235 -0.23545
0.35848 0.02415 -0.23768
0.35888 0.02181 -0.23801
0.35659 0.02403 -0.23999
0.35433 0.02435 -0.24193
0.35203 0.02463 -0.24383
0.34971 0.02485 -0.24574
0.34761 0.02552 -0.24779
0.34574 0.02628 -0.25002
0.37955 0.02926 -0.21735
0.37769 0.027 -0.21944
0.37699 0.02929 -0.21892
0.37519 0.02725 -0.22109
0.37477 0.02963 -0.22093
0.37256 0.02976 -0.22295
0.3705 0.02962 -0.22511
0.36866 0.02909 -0.22739
0.36665 0.02819 -0.22943
0.36442 0.02744 -0.23133
0.36211 0.02727 -0.23324
0.36002 0.02714 -0.2354
0.35819 0.02652 -0.23767
0.35616 0.02637 -0.23986
0.35389 0.02668 -0.24179
0.35159 0.02695 -0.2437
0.34933 0.02719 -0.24568
0.34743 0.02786 -0.2479
0.34588 0.02858 -0.25042
0.40952 0.04158 -0.17257
0.4077 0.03907 -0.1748
0.40763 0.04174 -0.1749
0.40618 0.03904 -0.1774
0.40597 0.0417 -0.17738
0.40445 0.041 -0.17988
0.40419 0.03837 -0.17955
0.40281 0.03954 -0.18194
0.40254 0.03691 -0.18161
0.40105 0.03829 -0.18399
0.38341 0.03156 -0.21298
0.38217 0.02926 -0.21577
0.38145 0.03158 -0.21529
0.37916 0.03166 -0.21723
0.37686 0.03174 -0.21914
0.37462 0.03204 -0.22112
0.37238 0.03216 -0.2231
0.37032 0.03202 -0.22527
0.36836 0.0315 -0.22743
0.36661 0.03058 -0.2297
0.36441 0.02982 -0.23164
0.36208 0.02966 -0.23352
0.36031 0.02948 -0.23593
0.35821 0.02889 -0.23797
0.35597 0.02874 -0.23996
0.35355 0.02901 -0.24171
0.35134 0.02929 -0.24373
0.34912 0.02953 -0.24574
0.34735 0.03019 -0.24806
0.34559 0.03092 -0.25041
0.41547 0.0434 -0.16594
0.41314 0.04102 -0.16786
0.41395 0.04357 -0.16853
0.41168 0.04131 -0.17049
0.412 0.04398 -0.17081
0.40961 0.04427 -0.17264
0.4077 0.04442 -0.17496
0.40603 0.04437 -0.17744
0.40446 0.04367 -0.17991
0.40304 0.04221 -0.18217
0.40105 0.04093 -0.184
0.39937 0.03968 -0.18602
0.3995 0.03706 -0.18615
0.39791 0.03802 -0.188
0.39794 0.03541 -0.18806
0.39627 0.03652 -0.18995
0.39471 0.03354 -0.19249
0.39352 0.03596 -0.19515
0.39474 0.03613 -0.19243
0.39322 0.03342 -0.19508
0.39225 0.03479 -0.19762
0.38899 0.03367 -0.20235
0.38749 0.03165 -0.20499
0.38732 0.03415 -0.20478
0.38614 0.03189 -0.20764
0.38569 0.03431 -0.20726
0.38425 0.03412 -0.20989
0.38472 0.03171 -0.21027
0.38304 0.03397 -0.21263
0.3814 0.03401 -0.21519
0.37902 0.03409 -0.21706
0.37678 0.03417 -0.21904
0.37463 0.03447 -0.2211
0.37254 0.03457 -0.22325
0.37031 0.03443 -0.22525
0.36848 0.0339 -0.22753
0.36657 0.03299 -0.22966
0.36441 0.03222 -0.23163
0.36217 0.03205 -0.23361
0.36054 0.0319 -0.23612
0.35844 0.03129 -0.23817
0.35587 0.0311 -0.23974
0.3534 0.03135 -0.24143
0.35121 0.03163 -0.24347
0.34918 0.03187 -0.24566
0.34716 0.03249 -0.24777
0.34507 0.03313 -0.2498
0.34276 0.03321 -0.25162
0.42077 0.04647 -0.15899
0.41876 0.04398 -0.16099
0.41897 0.04665 -0.16135
0.41694 0.04366 -0.16335
0.41704 0.04634 -0.16362
0.41532 0.0461 -0.16603
0.41388 0.0463 -0.16867
0.41197 0.04669 -0.17096
0.40976 0.04694 -0.17298
0.40785 0.04708 -0.17527
0.40609 0.04703 -0.17768
0.40431 0.04633 -0.17999
0.4026 0.04485 -0.18198
0.40086 0.04356 -0.184
0.39944 0.04229 -0.18621
0.39807 0.04061 -0.18823
0.39637 0.03912 -0.19015
0.39485 0.0387 -0.19261
0.39356 0.03852 -0.1953
0.39268 0.03729 -0.19794
0.39089 0.03624 -0.20009
0.39069 0.03372 -0.19989
0.38906 0.03619 -0.20246
0.38716 0.03666 -0.20471
0.38562 0.03681 -0.20723
0.38415 0.0366 -0.20982
0.38274 0.03641 -0.21245
0.38138 0.03645 -0.21517
0.37912 0.03652 -0.2172
0.37661 0.03659 -0.21885
0.37438 0.03687 -0.22084
0.37231 0.03698 -0.223
0.37042 0.03684 -0.22531
0.3686 0.0363 -0.22759
0.36665 0.03538 -0.22969
0.36436 0.03462 -0.2315
0.36225 0.03445 -0.2336
0.36024 0.03429 -0.23578
0.35806 0.03363 -0.23768
0.35566 0.03344 -0.23944
0.35321 0.03368 -0.24115
0.3511 0.03396 -0.24326
0.34908 0.0342 -0.24546
0.34695 0.03479 -0.24745
0.34479 0.03539 -0.2494
0.34274 0.03552 -0.25154
0.42078 0.04918 -0.15924
0.41884 0.04936 -0.16149
0.41702 0.04903 -0.16384
0.41518 0.04879 -0.16615
0.41362 0.04898 -0.1687
0.4119 0.04938 -0.17112
0.40999 0.04959 -0.17341
0.40798 0.04974 -0.17562
0.40588 0.0497 -0.17773
0.40406 0.04898 -0.17997
0.40245 0.04749 -0.182
0.40089 0.0462 -0.18416
0.39968 0.04491 -0.18647
0.39824 0.04321 -0.18843
0.39689 0.04165 -0.19055
0.39529 0.04123 -0.19295
0.39382 0.04105 -0.19553
0.39262 0.03986 -0.198
0.3913 0.03874 -0.20043
0.38924 0.0387 -0.20265
0.38698 0.03918 -0.20456
0.38548 0.03931 -0.20713
0.38419 0.03908 -0.20982
0.38284 0.03889 -0.21247
0.38134 0.03893 -0.21509
0.37941 0.03901 -0.21752
0.37669 0.03903 -0.21891
0.37444 0.0393 -0.22085
0.37233 0.03939 -0.22295
0.37039 0.03926 -0.22522
0.36891 0.03869 -0.22779
0.36667 0.03777 -0.22959
0.36438 0.03701 -0.23138
0.36229 0.03685 -0.2335
0.36006 0.03665 -0.23545
0.35772 0.03594 -0.23711
0.35531 0.03573 -0.23886
0.35304 0.03602 -0.24081
0.35106 0.03631 -0.24303
0.34902 0.03653 -0.2452
0.3469 0.03711 -0.2472
0.34463 0.03768 -0.24904
0.3426 0.0378 -0.25118
0.42075 0.05189 -0.1595
0.41882 0.05206 -0.16177
0.41709 0.05171 -0.16417
0.41539 0.05145 -0.16659
0.41372 0.05165 -0.16905
0.41203 0.05205 -0.17149
0.40997 0.05228 -0.17364
0.40776 0.05242 -0.17565
0.40564 0.05235 -0.17773
0.40362 0.0516 -0.17978
0.40243 0.05014 -0.18211
0.40093 0.04884 -0.18431
0.39945 0.04754 -0.18643
0.3983 0.04584 -0.18853
0.39716 0.04426 -0.19075
0.39553 0.04381 -0.19313
0.39423 0.04359 -0.19579
0.39265 0.04242 -0.19803
0.3914 0.04129 -0.20048
0.38932 0.04123 -0.20264
0.38737 0.04166 -0.20484
0.38568 0.04179 -0.20728
0.38415 0.04156 -0.20983
0.38267 0.04135 -0.2124
0.38093 0.04136 -0.21484
0.37887 0.04142 -0.21701
0.37663 0.04146 -0.21899
0.37447 0.04171 -0.22101
0.37251 0.04179 -0.22325
0.37052 0.04166 -0.22545
0.36875 0.04113 -0.22778
0.36671 0.04018 -0.22976
0.36442 0.0394 -0.23153
0.36221 0.03924 -0.23352
0.35991 0.03904 -0.23539
0.3576 0.03834 -0.23708
0.35521 0.03813 -0.23884
0.35296 0.0384 -0.2408
0.35096 0.03866 -0.24299
0.34886 0.03886 -0.2451
0.34668 0.03943 -0.24704
0.34428 0.03994 -0.2487
0.34221 0.04004 -0.2508
0.42078 0.05459 -0.15997
0.41888 0.05473 -0.16224
0.41719 0.05436 -0.16466
0.41547 0.0541 -0.16706
0.41384 0.05429 -0.16956
0.41193 0.05472 -0.17182
0.40973 0.05496 -0.17379
0.40753 0.05509 -0.17579
0.40535 0.05501 -0.1778
0.40349 0.05425 -0.18
0.40206 0.05276 -0.18218
0.40074 0.05147 -0.18448
0.39921 0.05015 -0.18658
0.3978 0.04841 -0.18849
0.39683 0.04686 -0.19078
0.39537 0.04638 -0.19328
0.39395 0.04616 -0.19585
0.39277 0.04494 -0.19829
0.39137 0.04382 -0.20061
0.38966 0.04369 -0.20304
0.38792 0.04406 -0.20542
0.38652 0.04401 -0.20804
0.3848 0.04383 -0.21048
0.38271 0.04378 -0.21261
0.38057 0.04378 -0.21468
0.37854 0.04382 -0.21683
0.37649 0.0439 -0.21898
0.37443 0.04413 -0.22111
0.37267 0.04418 -0.22351
0.37046 0.04407 -0.22552
0.36833 0.0435 -0.22748
0.36638 0.04256 -0.22951
0.36449 0.0418 -0.23172
0.36226 0.04164 -0.23368
0.35997 0.04143 -0.23554
0.35772 0.04071 -0.23731
0.35535 0.0405 -0.23908
0.35316 0.04075 -0.24107
0.35104 0.041 -0.24314
0.3488 0.04121 -0.2451
0.34631 0.04171 -0.24663
0.34401 0.04222 -0.24843
0.34185 0.04227 -0.25043
0.33946 0.04178 -0.25215
0.41883 0.05727 -0.16319
0.41693 0.05694 -0.16541
0.41535 0.05665 -0.16793
0.4136 0.05685 -0.17036
0.41162 0.0573 -0.17253
0.40957 0.0575 -0.17464
0.40732 0.05764 -0.17659
0.40518 0.05758 -0.17863
0.40352 0.05673 -0.18094
0.40195 0.05526 -0.183
0.4005 0.05398 -0.18522
0.39881 0.05264 -0.18725
0.39727 0.0509 -0.18907
0.39642 0.04936 -0.19142
0.39488 0.04884 -0.19391
0.3934 0.0486 -0.19641
0.39282 0.04733 -0.19905
0.39141 0.04619 -0.20139
0.38988 0.04605 -0.20393
0.38888 0.04601 -0.20673
0.38757 0.04585 -0.20946
0.38549 0.04593 -0.21173
0.38281 0.04617 -0.21315
0.38036 0.0462 -0.21481
0.37813 0.04623 -0.21674
0.37619 0.04631 -0.21897
0.37456 0.04653 -0.22144
0.37302 0.0465 -0.22403
0.3707 0.04644 -0.22599
0.36821 0.0459 -0.22749
0.36624 0.04496 -0.22948
0.36422 0.04419 -0.23154
0.36219 0.04405 -0.2337
0.35994 0.04383 -0.23562
0.35775 0.04309 -0.23745
0.35561 0.04282 -0.23947
0.35362 0.043 -0.2417
0.35114 0.04335 -0.24333
0.34871 0.04354 -0.24502
0.34627 0.04404 -0.24661
0.34397 0.04454 -0.2484
0.34151 0.04449 -0.25
0.3389 0.04381 -0.25126
0.4208 0.05956 -0.16222
0.41874 0.05975 -0.16427
0.41669 0.05945 -0.16638
0.41524 0.05912 -0.16899
0.41333 0.05937 -0.17129
0.41147 0.05979 -0.17358
0.40923 0.06003 -0.17551
0.40734 0.06003 -0.17782
0.4058 0.05963 -0.18032
0.40379 0.05895 -0.18239
0.4017 0.05768 -0.18405
0.39995 0.05643 -0.18604
0.39831 0.05509 -0.18807
0.39673 0.05334 -0.18981
0.39539 0.05173 -0.19186
0.39405 0.05124 -0.19441
0.39325 0.05103 -0.1972
0.39332 0.04967 -0.19993
0.39209 0.04841 -0.20239
0.39101 0.04804 -0.20515
0.39016 0.04801 -0.20814
0.38825 0.04824 -0.21063
0.38578 0.0484 -0.21249
0.38318 0.04847 -0.21404
0.38052 0.04858 -0.21536
0.37792 0.04866 -0.21676
0.37603 0.04874 -0.21902
0.37487 0.049 -0.22177
0.37343 0.04909 -0.22458
0.37073 0.04894 -0.22625
0.36811 0.04831 -0.2275
0.36609 0.04736 -0.22943
0.36413 0.0466 -0.23152
0.36196 0.04645 -0.23355
0.35978 0.04623 -0.23553
0.35802 0.04545 -0.23775
0.3562 0.04506 -0.24007
0.35407 0.04531 -0.24225
0.35127 0.0457 -0.24336
0.3488 0.04588 -0.24496
0.34643 0.04637 -0.24666
0.34404 0.04686 -0.24835
0.34143 0.04675 -0.24968
0.33873 0.04601 -0.2507
0.4213 0.06201 -0.16337
0.41888 0.06233 -0.16507
0.41683 0.06201 -0.16721
0.41506 0.06175 -0.16956
0.41325 0.06199 -0.17192
[...]
CELL_DATA 2940
SCALARS brightness_temperature float
LOOKUP_TABLE default
254.14999389648438
254.14999389648438
254.14999389648438
254.14999389648438
254.14999389648438
254.14999389648438
262.69000244140625
254.14999389648438
254.14999389648438
254.14999389648438
254.14999389648438
254.14999389648438
255.14999389648438
254.14999389648438
255.14999389648438
262.8999938964844
257.7799987792969
257.7799987792969
257.7799987792969
257.7799987792969
257.7799987792969
257.7799987792969
257.7799987792969
257.7799987792969
257.7799987792969
257.7799987792969
257.7799987792969
257.7799987792969
257.7799987792969
257.7799987792969
257.7799987792969
257.7799987792969
257.7799987792969
255.14999389648438
255.14999389648438
255.14999389648438
255.14999389648438
255.14999389648438
255.14999389648438
255.14999389648438
255.14999389648438
262.8999938964844
262.8999938964844
262.8999938964844
262.8999938964844
262.8999938964844
257.7799987792969
257.7799987792969
257.7799987792969
257.7799987792969
257.7799987792969
257.7799987792969
257.7799987792969
257.7799987792969
257.7799987792969
257.7799987792969
257.7799987792969
257.7799987792969
257.7799987792969
257.7799987792969
257.7799987792969
257.7799987792969
257.7799987792969
255.14999389648438
255.14999389648438
255.14999389648438
255.14999389648438
255.14999389648438
255.14999389648438
255.14999389648438
255.14999389648438
267.8800048828125
267.8800048828125
267.8800048828125
267.8800048828125
267.8800048828125
267.8800048828125
267.8800048828125
267.8800048828125
262.8999938964844
262.8999938964844
262.8999938964844
262.8999938964844
262.8999938964844
262.8999938964844
262.8999938964844
262.8999938964844
262.8999938964844
257.7799987792969
257.7799987792969
257.7799987792969
257.7799987792969
257.7799987792969
257.7799987792969
257.7799987792969
257.7799987792969
257.7799987792969
257.7799987792969
257.7799987792969
257.7799987792969
257.7799987792969
257.7799987792969
257.7799987792969
257.7799987792969
257.7799987792969
257.7799987792969
255.14999389648438
255.14999389648438
255.14999389648438
255.14999389648438
255.14999389648438
255.14999389648438
255.14999389648438
255.14999389648438
267.8800048828125
267.8800048828125
267.8800048828125
267.8800048828125
267.8800048828125
267.8800048828125
267.8800048828125
267.8800048828125
267.8800048828125
267.8800048828125
267.8800048828125
267.8800048828125
267.8800048828125
267.8800048828125
267.8800048828125
267.8800048828125
267.8800048828125
274.8599853515625
274.8599853515625
274.8599853515625
274.8599853515625
273.6199951171875
273.6199951171875
273.6199951171875
262.8999938964844
262.8999938964844
262.8999938964844
262.8999938964844
262.8999938964844
262.8999938964844
262.8999938964844
262.8999938964844
262.8999938964844
262.8999938964844
262.8999938964844
262.8999938964844
262.8999938964844
262.8999938964844
262.8999938964844
262.8999938964844
257.7799987792969
257.7799987792969
257.7799987792969
257.7799987792969
257.7799987792969
257.7799987792969
257.7799987792969
257.7799987792969
257.7799987792969
257.7799987792969
257.7799987792969
257.7799987792969
257.7799987792969
257.7799987792969
257.7799987792969
257.7799987792969
257.7799987792969
257.7799987792969
255.14999389648438
255.14999389648438
255.14999389648438
255.14999389648438
255.14999389648438
255.14999389648438
255.14999389648438
255.14999389648438
255.14999389648438
262.0400085449219
262.0400085449219
262.0400085449219
262.0400085449219
262.0400085449219
267.8800048828125
267.8800048828125
267.8800048828125
267.8800048828125
267.8800048828125
267.8800048828125
267.8800048828125
267.8800048828125
267.8800048828125
267.8800048828125
267.8800048828125
267.8800048828125
267.8800048828125
267.8800048828125
267.8800048828125
267.8800048828125
267.8800048828125
267.8800048828125
274.8599853515625
274.8599853515625
274.8599853515625
274.8599853515625
274.8599853515625
274.8599853515625
274.8599853515625
274.8599853515625
274.8599853515625
274.8599853515625
274.8599853515625
273.6199951171875
273.6199951171875
273.6199951171875
273.6199951171875
273.6199951171875
262.8999938964844
262.8999938964844
262.8999938964844
262.8999938964844
262.8999938964844
262.8999938964844
262.8999938964844
262.8999938964844
262.8999938964844
262.8999938964844
262.8999938964844
262.8999938964844
262.8999938964844
262.8999938964844
262.8999938964844
257.7799987792969
257.7799987792969
257.7799987792969
257.7799987792969
257.7799987792969
257.7799987792969
257.7799987792969
257.7799987792969
257.7799987792969
257.7799987792969
257.7799987792969
257.7799987792969
257.7799987792969
257.7799987792969
257.7799987792969
257.7799987792969
257.7799987792969
257.7799987792969
257.7799987792969
255.14999389648438
255.14999389648438
255.14999389648438
255.14999389648438
255.14999389648438
255.14999389648438
255.14999389648438
255.14999389648438
255.14999389648438
255.14999389648438
262.0400085449219
262.0400085449219
262.0400085449219
262.0400085449219
262.0400085449219
262.0400085449219
267.8800048828125
267.8800048828125
267.8800048828125
267.8800048828125
267.8800048828125
267.8800048828125
267.8800048828125
267.8800048828125
267.8800048828125
267.8800048828125
267.8800048828125
267.8800048828125
267.8800048828125
267.8800048828125
267.8800048828125
267.8800048828125
274.8599853515625
274.8599853515625
274.8599853515625
274.8599853515625
274.8599853515625
274.8599853515625
274.8599853515625
274.8599853515625
274.8599853515625
274.8599853515625
274.8599853515625
274.8599853515625
274.8599853515625
274.8599853515625
274.8599853515625
274.8599853515625
274.8599853515625
266.79998779296875
266.79998779296875
266.79998779296875
266.79998779296875
266.79998779296875
266.79998779296875
266.79998779296875
266.79998779296875
266.79998779296875
266.79998779296875
266.79998779296875
266.79998779296875
266.79998779296875
266.79998779296875
266.79998779296875
266.79998779296875
261.9599914550781
261.9599914550781
257.7799987792969
261.9599914550781
257.7799987792969
257.7799987792969
257.7799987792969
257.7799987792969
257.7799987792969
257.7799987792969
257.7799987792969
257.7799987792969
257.7799987792969
257.7799987792969
257.7799987792969
257.7799987792969
257.7799987792969
257.7799987792969
257.7799987792969
255.14999389648438
255.14999389648438
255.14999389648438
255.14999389648438
255.14999389648438
255.14999389648438
255.14999389648438
255.14999389648438
255.14999389648438
255.14999389648438
268.2300109863281
268.2300109863281
268.2300109863281
268.2300109863281
268.2300109863281
268.2300109863281
267.2699890136719
267.2699890136719
267.2699890136719
267.2699890136719
267.2699890136719
267.2699890136719
267.2699890136719
267.2699890136719
267.2699890136719
267.2699890136719
267.2699890136719
267.8800048828125
267.8800048828125
267.8800048828125
267.8800048828125
267.8800048828125
274.8599853515625
274.8599853515625
274.8599853515625
274.8599853515625
274.8599853515625
274.8599853515625
274.8599853515625
274.8599853515625
274.8599853515625
274.8599853515625
274.8599853515625
274.8599853515625
274.8599853515625
274.8599853515625
274.8599853515625
274.8599853515625
274.8599853515625
266.79998779296875
266.79998779296875
266.79998779296875
266.79998779296875
266.79998779296875
266.79998779296875
266.79998779296875
266.79998779296875
266.79998779296875
266.79998779296875
266.79998779296875
266.79998779296875
266.79998779296875
266.79998779296875
266.79998779296875
266.79998779296875
261.9599914550781
261.9599914550781
261.9599914550781
261.9599914550781
261.9599914550781
261.9599914550781
261.9599914550781
261.9599914550781
257.7799987792969
257.7799987792969
257.7799987792969
257.7799987792969
257.7799987792969
257.7799987792969
257.7799987792969
257.7799987792969
257.7799987792969
257.7799987792969
257.7799987792969
255.14999389648438
255.14999389648438
255.14999389648438
255.14999389648438
255.14999389648438
255.14999389648438
255.14999389648438
255.14999389648438
255.14999389648438
255.14999389648438
268.2300109863281
268.2300109863281
268.2300109863281
268.2300109863281
267.2699890136719
267.2699890136719
267.2699890136719
267.2699890136719
267.2699890136719
267.2699890136719
267.2699890136719
267.2699890136719
267.2699890136719
267.2699890136719
267.2699890136719
267.2699890136719
267.2699890136719
267.2699890136719
267.2699890136719
267.2699890136719
267.8800048828125
274.8599853515625
274.8599853515625
274.8599853515625
274.8599853515625
274.8599853515625
274.8599853515625
274.8599853515625
274.8599853515625
274.8599853515625
274.8599853515625
274.8599853515625
274.8599853515625
274.8599853515625
274.8599853515625
274.8599853515625
274.8599853515625
266.79998779296875
266.79998779296875
266.79998779296875
266.79998779296875
266.79998779296875
266.79998779296875
266.79998779296875
266.79998779296875
266.79998779296875
266.79998779296875
266.79998779296875
266.79998779296875
266.79998779296875
266.79998779296875
266.79998779296875
266.79998779296875
261.9599914550781
261.9599914550781
261.9599914550781
261.9599914550781
261.9599914550781
261.9599914550781
261.9599914550781
261.9599914550781
261.9599914550781
261.9599914550781
261.9599914550781
261.9599914550781
261.9599914550781
261.9599914550781
261.9599914550781
261.9599914550781
261.9599914550781
261.9599914550781
257.7799987792969
251.3300018310547
251.3300018310547
251.3300018310547
251.3300018310547
251.3300018310547
251.3300018310547
251.3300018310547
251.3300018310547
251.3300018310547
251.3300018310547
251.3300018310547
251.3300018310547
268.2300109863281
268.2300109863281
267.2699890136719
267.2699890136719
267.2699890136719
267.2699890136719
267.2699890136719
267.2699890136719
267.2699890136719
267.2699890136719
267.2699890136719
267.2699890136719
267.2699890136719
267.2699890136719
267.2699890136719
267.2699890136719
267.2699890136719
267.2699890136719
272.6099853515625
272.6099853515625
272.6099853515625
274.8599853515625
274.8599853515625
274.8599853515625
274.8599853515625
274.8599853515625
274.8599853515625
274.8599853515625
274.8599853515625
274.8599853515625
274.8599853515625
274.8599853515625
274.8599853515625
274.8599853515625
274.8599853515625
266.79998779296875
266.79998779296875
266.79998779296875
266.79998779296875
266.79998779296875
266.79998779296875
266.79998779296875
266.79998779296875
266.79998779296875
266.79998779296875
266.79998779296875
266.79998779296875
266.79998779296875
266.79998779296875
266.79998779296875
266.79998779296875
266.79998779296875
261.9599914550781
261.9599914550781
261.9599914550781
261.9599914550781
261.9599914550781
261.9599914550781
261.9599914550781
261.9599914550781
261.9599914550781
261.9599914550781
261.9599914550781
261.9599914550781
261.9599914550781
261.9599914550781
261.9599914550781
261.9599914550781
261.9599914550781
261.9599914550781
251.3300018310547
251.3300018310547
251.3300018310547
251.3300018310547
251.3300018310547
251.3300018310547
251.3300018310547
251.3300018310547
251.3300018310547
251.3300018310547
251.3300018310547
251.3300018310547
251.3300018310547
251.3300018310547
268.2300109863281
268.2300109863281
267.2699890136719
267.2699890136719
267.2699890136719
267.2699890136719
267.2699890136719
267.2699890136719
267.2699890136719
267.2699890136719
267.2699890136719
267.2699890136719
267.2699890136719
267.2699890136719
267.2699890136719
267.2699890136719
267.2699890136719
267.2699890136719
272.6099853515625
272.6099853515625
272.6099853515625
272.6099853515625
272.6099853515625
272.6099853515625
272.6099853515625
272.6099853515625
274.8599853515625
274.8599853515625
274.8599853515625
274.8599853515625
274.8599853515625
274.8599853515625
274.8599853515625
274.8599853515625
274.8599853515625
266.79998779296875
266.79998779296875
266.79998779296875
266.79998779296875
266.79998779296875
266.79998779296875
266.79998779296875
266.79998779296875
266.79998779296875
266.79998779296875
266.79998779296875
266.79998779296875
266.79998779296875
266.79998779296875
266.79998779296875
266.79998779296875
266.79998779296875
261.9599914550781
261.9599914550781
261.9599914550781
261.9599914550781
261.9599914550781
261.9599914550781
261.9599914550781
261.9599914550781
261.9599914550781
261.9599914550781
261.9599914550781
261.9599914550781
261.9599914550781
261.9599914550781
261.9599914550781
261.9599914550781
261.9599914550781
261.9599914550781
261.9599914550781
251.3300018310547
251.3300018310547
251.3300018310547
251.3300018310547
251.3300018310547
251.3300018310547
251.3300018310547
251.3300018310547
251.3300018310547
251.3300018310547
251.3300018310547
251.3300018310547
251.3300018310547
251.3300018310547
267.2699890136719
267.2699890136719
267.2699890136719
267.2699890136719
267.2699890136719
267.2699890136719
267.2699890136719
267.2699890136719
267.2699890136719
267.2699890136719
267.2699890136719
267.2699890136719
267.2699890136719
267.2699890136719
267.2699890136719
267.2699890136719
272.6099853515625
272.6099853515625
272.6099853515625
272.6099853515625
272.6099853515625
272.6099853515625
272.6099853515625
272.6099853515625
272.6099853515625
272.6099853515625
272.6099853515625
272.6099853515625
274.8599853515625
274.8599853515625
272.6099853515625
274.8599853515625
274.8599853515625
274.8599853515625
274.8599853515625
266.79998779296875
266.79998779296875
266.79998779296875
266.79998779296875
266.79998779296875
266.79998779296875
266.79998779296875
266.79998779296875
266.79998779296875
266.79998779296875
266.79998779296875
266.79998779296875
266.79998779296875
266.79998779296875
266.79998779296875
266.79998779296875
266.79998779296875
261.9599914550781
261.9599914550781
261.9599914550781
261.9599914550781
261.9599914550781
261.9599914550781
261.9599914550781
261.9599914550781
261.9599914550781
261.9599914550781
261.9599914550781
261.9599914550781
261.9599914550781
261.9599914550781
261.9599914550781
261.9599914550781
261.9599914550781
251.3300018310547
251.3300018310547
251.3300018310547
251.3300018310547
251.3300018310547
251.3300018310547
251.3300018310547
251.3300018310547
251.3300018310547
251.3300018310547
251.3300018310547
251.3300018310547
251.3300018310547
251.3300018310547
251.3300018310547
251.3300018310547
267.2699890136719
267.2699890136719
267.2699890136719
267.2699890136719
267.2699890136719
267.2699890136719
267.2699890136719
267.2699890136719
267.2699890136719
267.2699890136719
267.2699890136719
267.2699890136719
267.2699890136719
267.2699890136719
267.2699890136719
272.6099853515625
272.6099853515625
272.6099853515625
272.6099853515625
272.6099853515625
272.6099853515625
272.6099853515625
272.6099853515625
272.6099853515625
272.6099853515625
272.6099853515625
272.6099853515625
272.6099853515625
272.6099853515625
272.6099853515625
272.6099853515625
272.6099853515625
272.6099853515625
272.6099853515625
266.79998779296875
266.79998779296875
266.79998779296875
266.79998779296875
266.79998779296875
266.79998779296875
266.79998779296875
266.79998779296875
266.79998779296875
266.79998779296875
266.79998779296875
266.79998779296875
266.79998779296875
266.79998779296875
266.79998779296875
266.79998779296875
266.79998779296875
266.79998779296875
261.9599914550781
261.9599914550781
261.9599914550781
261.9599914550781
261.9599914550781
261.9599914550781
261.9599914550781
261.9599914550781
261.9599914550781
261.9599914550781
261.9599914550781
261.9599914550781
261.9599914550781
261.9599914550781
261.9599914550781
261.9599914550781
261.9599914550781
251.3300018310547
251.3300018310547
251.3300018310547
251.3300018310547
251.3300018310547
251.3300018310547
251.3300018310547
251.3300018310547
251.3300018310547
251.3300018310547
251.3300018310547
251.3300018310547
251.3300018310547
251.3300018310547
251.3300018310547
251.3300018310547
251.3300018310547
267.2699890136719
267.2699890136719
267.2699890136719
267.2699890136719
267.2699890136719
267.2699890136719
267.2699890136719
267.2699890136719
267.2699890136719
267.2699890136719
267.2699890136719
267.2699890136719
267.2699890136719
267.2699890136719
272.6099853515625
272.6099853515625
272.6099853515625
272.6099853515625
272.6099853515625
272.6099853515625
272.6099853515625
272.6099853515625
272.6099853515625
272.6099853515625
272.6099853515625
272.6099853515625
272.6099853515625
272.6099853515625
272.6099853515625
272.6099853515625
272.6099853515625
272.6099853515625
272.6099853515625
270.510009765625
270.510009765625
270.510009765625
270.510009765625
270.510009765625
270.510009765625
266.79998779296875
270.510009765625
266.79998779296875
270.510009765625
266.79998779296875
270.510009765625
266.79998779296875
270.510009765625
266.79998779296875
266.79998779296875
270.510009765625
266.79998779296875
263.4800109863281
261.9599914550781
261.9599914550781
261.9599914550781
261.9599914550781
261.9599914550781
261.9599914550781
261.9599914550781
261.9599914550781
261.9599914550781
261.9599914550781
261.9599914550781
261.9599914550781
261.9599914550781
261.9599914550781
261.9599914550781
261.9599914550781
261.9599914550781
251.3300018310547
251.3300018310547
251.3300018310547
251.3300018310547
251.3300018310547
251.3300018310547
251.3300018310547
251.3300018310547
251.3300018310547
251.3300018310547
251.3300018310547
251.3300018310547
251.3300018310547
251.3300018310547
251.3300018310547
251.3300018310547
251.3300018310547
279.1600036621094
279.1600036621094
279.1600036621094
279.1600036621094
279.1600036621094
279.1600036621094
279.1600036621094
279.1600036621094
279.1600036621094
279.1600036621094
279.1600036621094
267.2699890136719
279.1600036621094
267.2699890136719
272.6099853515625
272.6099853515625
272.6099853515625
272.6099853515625
272.6099853515625
272.6099853515625
272.6099853515625
272.6099853515625
272.6099853515625
272.6099853515625
272.6099853515625
272.6099853515625
272.6099853515625
272.6099853515625
272.6099853515625
272.6099853515625
272.6099853515625
272.6099853515625
272.6099853515625
272.6099853515625
270.510009765625
270.510009765625
270.510009765625
270.510009765625
270.510009765625
270.510009765625
270.510009765625
270.510009765625
270.510009765625
270.510009765625
270.510009765625
270.510009765625
270.510009765625
270.510009765625
270.510009765625
270.510009765625
263.4800109863281
263.4800109863281
263.4800109863281
263.4800109863281
263.4800109863281
263.4800109863281
263.4800109863281
263.4800109863281
263.4800109863281
261.9599914550781
261.9599914550781
261.9599914550781
261.9599914550781
261.9599914550781
261.9599914550781
261.9599914550781
261.9599914550781
261.9599914550781
261.9599914550781
251.3300018310547
251.3300018310547
251.3300018310547
251.3300018310547
251.3300018310547
251.3300018310547
251.3300018310547
251.3300018310547
251.3300018310547
251.3300018310547
251.3300018310547
251.3300018310547
251.3300018310547
251.3300018310547
251.3300018310547
251.3300018310547
251.3300018310547
279.1600036621094
279.1600036621094
279.1600036621094
279.1600036621094
279.1600036621094
279.1600036621094
279.1600036621094
279.1600036621094
279.1600036621094
279.1600036621094
279.1600036621094
279.1600036621094
279.1600036621094
272.0799865722656
272.0799865722656
272.0799865722656
272.0799865722656
272.0799865722656
272.6099853515625
272.6099853515625
272.6099853515625
272.6099853515625
272.6099853515625
272.6099853515625
272.6099853515625
272.6099853515625
272.6099853515625
272.6099853515625
272.6099853515625
272.6099853515625
272.6099853515625
272.6099853515625
272.6099853515625
270.510009765625
270.510009765625
270.510009765625
270.510009765625
270.510009765625
270.510009765625
270.510009765625
270.510009765625
270.510009765625
270.510009765625
270.510009765625
270.510009765625
270.510009765625
270.510009765625
270.510009765625
270.510009765625
263.4800109863281
263.4800109863281
263.4800109863281
263.4800109863281
263.4800109863281
263.4800109863281
263.4800109863281
263.4800109863281
263.4800109863281
263.4800109863281
263.4800109863281
263.4800109863281
263.4800109863281
263.4800109863281
263.4800109863281
263.4800109863281
263.4800109863281
261.9599914550781
261.9599914550781
251.3300018310547
251.3300018310547