# vtk DataFile Version 3.0
SHAPE_sfm_50k_v20200323
ASCII
DATASET POLYDATA
POINTS 1881 float
-0.36534 -0.09508 0.21395
-0.36795 -0.09547 0.2126
-0.36495 -0.0974 0.21358
-0.36755 -0.09779 0.21226
-0.37063 -0.09623 0.21168
-0.37025 -0.09857 0.21137
-0.37323 -0.09713 0.21068
-0.37292 -0.09951 0.21064
-0.36418 -0.09964 0.21311
-0.36685 -0.10007 0.21191
-0.36953 -0.10082 0.21096
-0.37217 -0.10173 0.21012
-0.37554 -0.10042 0.20971
-0.37479 -0.10268 0.20924
-0.37806 -0.10138 0.20851
-0.3772 -0.10363 0.20789
-0.38039 -0.10178 0.20673
-0.37957 -0.10413 0.20624
-0.38249 -0.102 0.20467
-0.38171 -0.10441 0.20425
-0.36378 -0.10204 0.21284
-0.36643 -0.10244 0.21163
-0.369 -0.10312 0.21043
-0.37156 -0.10393 0.2093
-0.37409 -0.10474 0.20814
-0.37641 -0.1056 0.20666
-0.37865 -0.10601 0.2049
-0.38067 -0.10623 0.20284
-0.38357 -0.10496 0.20203
-0.38245 -0.10677 0.20063
-0.38491 -0.1053 0.19943
-0.38382 -0.1072 0.19813
-0.38584 -0.10501 0.1966
-0.38507 -0.10713 0.19548
-0.38777 -0.10533 0.19438
-0.38684 -0.10734 0.19312
-0.38982 -0.10597 0.1924
-0.38876 -0.10781 0.19097
-0.39165 -0.10654 0.1902
-0.3906 -0.10839 0.18879
-0.36133 -0.10173 0.21449
-0.36352 -0.10447 0.21287
-0.36606 -0.10482 0.21143
-0.36858 -0.10549 0.21013
-0.37102 -0.10623 0.20872
-0.37344 -0.10696 0.2073
-0.37574 -0.1078 0.20578
-0.37786 -0.10812 0.20388
-0.37979 -0.10828 0.20173
-0.38147 -0.10873 0.19942
-0.38295 -0.10926 0.197
-0.38452 -0.10941 0.19457
-0.38627 -0.10966 0.19224
-0.38798 -0.11 0.18992
-0.38961 -0.11039 0.18754
-0.39261 -0.10877 0.18673
-0.39136 -0.11049 0.18522
-0.39444 -0.10834 0.18452
-0.39334 -0.11027 0.18312
-0.39617 -0.10776 0.18229
-0.39536 -0.10997 0.18109
-0.36118 -0.10417 0.21461
-0.36343 -0.10687 0.21324
-0.36119 -0.10655 0.21506
-0.3657 -0.10721 0.21143
-0.36811 -0.10786 0.20994
-0.3704 -0.10854 0.20826
-0.37286 -0.1093 0.20689
-0.37511 -0.11012 0.2053
-0.37711 -0.11038 0.20324
-0.37893 -0.11051 0.20101
-0.38056 -0.11092 0.19866
-0.38198 -0.11139 0.19618
-0.38357 -0.11155 0.19375
-0.38529 -0.11182 0.19142
-0.38697 -0.11217 0.18907
-0.38856 -0.11258 0.18668
-0.39035 -0.11274 0.18439
-0.39247 -0.11263 0.1824
-0.39464 -0.11242 0.1805
-0.39706 -0.11007 0.17876
-0.39626 -0.11247 0.17809
-0.39871 -0.11034 0.17636
-0.39804 -0.11282 0.17582
-0.40053 -0.11045 0.17408
-0.3999 -0.11298 0.17359
-0.40677 -0.11611 0.16498
-0.40886 -0.11472 0.16319
-0.40828 -0.11726 0.16277
-0.41045 -0.11591 0.16105
-0.40984 -0.11845 0.16062
-0.41213 -0.11694 0.15891
-0.41143 -0.11943 0.1584
-0.41383 -0.11792 0.15676
-0.41299 -0.12033 0.15612
-0.41573 -0.1187 0.15471
-0.41487 -0.12113 0.15404
-0.41746 -0.1192 0.15243
-0.41686 -0.12176 0.15203
-0.41906 -0.11976 0.15007
-0.41854 -0.12236 0.14974
-0.42054 -0.12049 0.14767
-0.42003 -0.1231 0.14735
-0.42221 -0.12124 0.1454
-0.42179 -0.12389 0.14518
-0.42394 -0.1222 0.14327
-0.42348 -0.12484 0.14301
-0.42565 -0.12336 0.14122
-0.42505 -0.12596 0.14084
-0.4271 -0.12449 0.13897
-0.42672 -0.12716 0.13878
-0.36307 -0.10927 0.21345
-0.36106 -0.10894 0.21551
-0.36524 -0.1096 0.21151
-0.36753 -0.1102 0.20981
-0.36968 -0.11083 0.20793
-0.37214 -0.11159 0.20655
-0.37433 -0.11237 0.20484
-0.37629 -0.11264 0.20275
-0.37817 -0.11283 0.20057
-0.37947 -0.11305 0.198
-0.38066 -0.11334 0.19537
-0.38218 -0.11343 0.19287
-0.38391 -0.11374 0.19052
-0.3858 -0.11432 0.18838
-0.38756 -0.11487 0.18615
-0.38935 -0.11507 0.18387
-0.3914 -0.11492 0.18181
-0.39345 -0.11463 0.1798
-0.39534 -0.11486 0.17761
-0.39735 -0.11534 0.17557
-0.39925 -0.11552 0.17339
-0.40124 -0.11571 0.17128
-0.40187 -0.11314 0.17143
-0.40388 -0.11395 0.16949
-0.40317 -0.11648 0.16926
-0.40547 -0.11509 0.16737
-0.40449 -0.11748 0.1669
-0.40589 -0.11855 0.16458
-0.40744 -0.11974 0.16242
-0.40891 -0.12089 0.16021
-0.41028 -0.12174 0.15779
-0.41184 -0.12265 0.15549
-0.41381 -0.1235 0.1535
-0.41598 -0.12427 0.15172
-0.41764 -0.12487 0.1494
-0.41956 -0.12576 0.1474
-0.42126 -0.12653 0.14519
-0.42279 -0.12744 0.14289
-0.42415 -0.12849 0.14053
-0.42605 -0.12978 0.13872
-0.36328 -0.1116 0.21419
-0.36144 -0.11117 0.21638
-0.36499 -0.112 0.21187
-0.3669 -0.11253 0.20971
-0.36899 -0.11314 0.20775
-0.37122 -0.11376 0.20597
-0.37337 -0.11452 0.20421
-0.37545 -0.11488 0.20227
-0.37723 -0.11504 0.20001
-0.37817 -0.115 0.19725
-0.37927 -0.11525 0.19456
-0.38078 -0.11536 0.19202
-0.38266 -0.11583 0.18979
-0.38467 -0.11651 0.1878
-0.38649 -0.11713 0.18564
-0.38844 -0.11744 0.18352
-0.39046 -0.11731 0.18145
-0.39246 -0.11702 0.17938
-0.39447 -0.11731 0.17729
-0.39653 -0.1178 0.17532
-0.3985 -0.11802 0.17321
-0.40048 -0.11822 0.17111
-0.40214 -0.11888 0.16884
-0.40337 -0.11982 0.16639
-0.40471 -0.12084 0.16399
-0.40634 -0.12209 0.16191
-0.40782 -0.12326 0.15973
-0.40908 -0.12408 0.15724
-0.41077 -0.12508 0.15504
-0.41275 -0.12593 0.15307
-0.41483 -0.12663 0.15116
-0.4168 -0.1274 0.14917
-0.4189 -0.12837 0.1474
-0.42067 -0.12916 0.14524
-0.42199 -0.13002 0.14279
-0.42329 -0.13105 0.14039
-0.42507 -0.1323 0.13843
-0.36371 -0.11378 0.21518
-0.36186 -0.11332 0.21743
-0.36488 -0.11431 0.21255
-0.36623 -0.11485 0.20999
-0.36808 -0.11541 0.20776
-0.37017 -0.11597 0.20579
-0.37233 -0.11673 0.204
-0.37428 -0.117 0.20192
-0.37575 -0.11695 0.19946
-0.37674 -0.11699 0.19675
-0.37771 -0.11718 0.19397
-0.37926 -0.11735 0.1914
-0.38128 -0.11793 0.18929
-0.38333 -0.11864 0.18733
-0.38532 -0.11937 0.18535
-0.38741 -0.11978 0.18339
-0.38943 -0.11965 0.18131
-0.39145 -0.1194 0.17925
-0.39345 -0.1197 0.17717
-0.3954 -0.12013 0.17506
-0.3975 -0.12044 0.17309
-0.39952 -0.12068 0.17105
-0.40099 -0.12125 0.16862
-0.40216 -0.12218 0.16612
-0.40346 -0.12319 0.16368
-0.4051 -0.12444 0.16159
-0.40676 -0.12571 0.15959
-0.4081 -0.12661 0.15717
-0.40978 -0.12759 0.15498
-0.41173 -0.12842 0.15297
-0.41371 -0.12908 0.15093
-0.41585 -0.12991 0.14913
-0.4178 -0.13081 0.14719
-0.4197 -0.13167 0.14517
-0.42111 -0.13256 0.14279
-0.42241 -0.13361 0.1404
-0.42412 -0.13484 0.13837
-0.36364 -0.11611 0.21588
-0.36446 -0.1166 0.21309
-0.36557 -0.11714 0.21041
-0.36727 -0.11769 0.20806
-0.36917 -0.1182 0.2059
-0.37112 -0.11884 0.20385
-0.37297 -0.11906 0.20168
-0.37437 -0.119 0.19917
-0.37539 -0.11912 0.19646
-0.3765 -0.11945 0.19376
-0.37808 -0.11967 0.19123
-0.38004 -0.12018 0.18905
-0.38206 -0.12085 0.18706
-0.38405 -0.12156 0.18508
-0.38614 -0.12197 0.18311
-0.38823 -0.12191 0.1811
-0.39032 -0.12172 0.1791
-0.39236 -0.12206 0.17708
-0.39424 -0.12246 0.17489
-0.39643 -0.12282 0.17301
-0.39853 -0.12312 0.17104
-0.39982 -0.12363 0.16848
-0.40108 -0.12462 0.16605
-0.40238 -0.12565 0.16363
-0.40408 -0.12692 0.1616
-0.40579 -0.12819 0.15963
-0.40734 -0.12917 0.15739
-0.40903 -0.13016 0.15523
-0.41094 -0.13098 0.15319
-0.41301 -0.13167 0.15126
-0.4149 -0.13241 0.14918
-0.41678 -0.13329 0.14715
-0.41856 -0.13411 0.14501
-0.42008 -0.13506 0.14273
-0.42158 -0.13619 0.14051
-0.36187 -0.11562 0.21823
-0.36319 -0.11844 0.21638
-0.36387 -0.11887 0.21354
-0.36493 -0.11939 0.21085
-0.36647 -0.11993 0.20841
-0.36818 -0.1204 0.20609
-0.36993 -0.12097 0.20387
-0.37159 -0.1211 0.20153
-0.37312 -0.12116 0.19909
-0.37437 -0.12144 0.19649
-0.37563 -0.12185 0.19389
-0.37719 -0.12207 0.19139
-0.37906 -0.12255 0.18917
-0.38094 -0.12315 0.18703
-0.38278 -0.12378 0.18489
-0.38471 -0.12408 0.18274
-0.38686 -0.12407 0.18079
-0.38905 -0.12395 0.17888
-0.3911 -0.12432 0.17687
-0.39303 -0.12477 0.17476
-0.3951 -0.12507 0.17275
-0.39722 -0.1254 0.17081
-0.39876 -0.12605 0.16845
-0.40001 -0.12704 0.16603
-0.40144 -0.12814 0.16372
-0.40319 -0.12941 0.16176
-0.40488 -0.13068 0.15977
-0.40653 -0.13169 0.15761
-0.40832 -0.1327 0.15554
-0.41021 -0.13352 0.1535
-0.41211 -0.13418 0.15141
-0.41388 -0.13489 0.14922
-0.41564 -0.13572 0.14707
-0.41742 -0.13654 0.14492
-0.41903 -0.13754 0.14273
-0.42066 -0.13873 0.14064
-0.42316 -0.13739 0.13836
-0.36276 -0.12081 0.21666
-0.36312 -0.12112 0.21371
-0.36405 -0.12159 0.21096
-0.36552 -0.12212 0.20847
-0.36717 -0.12258 0.20611
-0.36882 -0.12314 0.20379
-0.37048 -0.12332 0.20145
-0.37197 -0.12339 0.19899
-0.37356 -0.1238 0.1966
-0.37491 -0.12424 0.19407
-0.37645 -0.12447 0.1916
-0.37819 -0.12493 0.18929
-0.37994 -0.1255 0.18705
-0.38169 -0.12611 0.18482
-0.38354 -0.12639 0.18261
-0.38555 -0.12629 0.18051
-0.38776 -0.1262 0.17862
-0.38988 -0.12662 0.17668
-0.39184 -0.1271 0.17462
-0.39385 -0.12739 0.17257
-0.39591 -0.12769 0.17056
-0.3976 -0.12842 0.16834
-0.39885 -0.12941 0.16591
-0.40038 -0.13056 0.1637
-0.40214 -0.13184 0.16177
-0.40389 -0.13314 0.15985
-0.40552 -0.13413 0.15767
-0.40734 -0.13517 0.15566
-0.40929 -0.13602 0.15368
-0.41113 -0.13667 0.15153
-0.41283 -0.13735 0.14929
-0.41452 -0.13816 0.14707
-0.41626 -0.13897 0.1449
-0.41794 -0.14 0.14278
-0.41946 -0.14116 0.14057
-0.36094 -0.12294 0.21948
-0.36217 -0.1232 0.21654
-0.36239 -0.12337 0.21356
-0.36309 -0.12374 0.21072
-0.36454 -0.1243 0.20822
-0.36604 -0.12469 0.20574
-0.36774 -0.12528 0.20344
-0.36986 -0.12572 0.20148
-0.37126 -0.12577 0.19893
-0.37275 -0.12614 0.1965
-0.37418 -0.12662 0.19402
-0.3757 -0.12685 0.19155
-0.37735 -0.1273 0.18919
-0.37905 -0.12789 0.18692
-0.38088 -0.12854 0.18477
-0.38257 -0.12878 0.18242
-0.38452 -0.12868 0.18026
-0.38667 -0.12856 0.1783
-0.3888 -0.12899 0.17638
-0.39086 -0.12953 0.17444
-0.39292 -0.12985 0.17244
-0.39486 -0.1301 0.17034
-0.39641 -0.13078 0.16801
-0.39784 -0.13188 0.16574
-0.39941 -0.13304 0.16357
-0.40122 -0.13433 0.1617
-0.40293 -0.13561 0.15975
-0.40457 -0.13661 0.15759
-0.40634 -0.13763 0.15551
-0.40819 -0.13844 0.15344
-0.4099 -0.13904 0.15119
-0.41169 -0.13977 0.14904
-0.4135 -0.14064 0.14695
-0.4151 -0.14139 0.14466
-0.41669 -0.1424 0.14244
-0.41845 -0.14372 0.14048
-0.35981 -0.12498 0.21811
-0.36108 -0.12511 0.2154
-0.36145 -0.12523 0.21247
-0.36231 -0.12574 0.20967
-0.36388 -0.12641 0.20727
-0.36541 -0.12685 0.20482
-0.36726 -0.12755 0.20265
-0.3693 -0.12794 0.20064
-0.37092 -0.1281 0.19827
-0.37231 -0.12847 0.19578
-0.37379 -0.12897 0.19333
-0.37537 -0.12925 0.19093
-0.37698 -0.12971 0.18855
-0.37876 -0.13034 0.18636
-0.38052 -0.13098 0.18414
-0.38236 -0.1313 0.18193
-0.38425 -0.13123 0.17973
[...]
CELL_DATA 3564
SCALARS brightness_temperature float
LOOKUP_TABLE default
POINT_DATA 1881
CELL_DATA 3564
SCALARS emission_angle float
LOOKUP_TABLE default
POINT_DATA 1881
CELL_DATA 3564
SCALARS incidence_angle float
LOOKUP_TABLE default
POINT_DATA 1881
CELL_DATA 3564
SCALARS phase_angle float
LOOKUP_TABLE default
POINT_DATA 1881
CELL_DATA 3564
SCALARS local_solar_time float
LOOKUP_TABLE default
POINT_DATA 1881
CELL_DATA 3564
SCALARS local_solar_time_normal_vector float
LOOKUP_TABLE default
CELL_DATA 3564
SCALARS pixel_x float
LOOKUP_TABLE default
POINT_DATA 1881
CELL_DATA 3564
SCALARS pixel_y float
LOOKUP_TABLE default
POINT_DATA 1881
CELL_DATA 3564
SCALARS longitude float
LOOKUP_TABLE default
POINT_DATA 1881
CELL_DATA 3564
SCALARS latitude float
LOOKUP_TABLE default
