# vtk DataFile Version 3.0
SHAPE_sfm_50k_v20200323
ASCII
DATASET POLYDATA
POINTS 603 float
0.09429 0.31605 0.26018
0.09648 0.31761 0.25772
0.09424 0.31793 0.25789
0.09463 0.3197 0.25554
0.09682 0.31918 0.25523
0.0952 0.32124 0.2531
0.09213 0.31662 0.2603
0.09204 0.31846 0.25794
0.09248 0.3204 0.25572
0.09307 0.32202 0.25332
0.09346 0.32325 0.25064
0.0956 0.32247 0.25043
0.09401 0.32458 0.24803
0.09616 0.32382 0.24783
0.0965 0.32559 0.24546
0.09426 0.32614 0.24549
0.09665 0.32739 0.24309
0.09443 0.32801 0.24315
0.09702 0.32935 0.24087
0.09483 0.33012 0.24108
0.09711 0.33162 0.23895
0.09488 0.3323 0.23905
0.09717 0.33376 0.23691
0.09496 0.33454 0.23708
0.09725 0.33576 0.23469
0.09506 0.33663 0.23488
0.09699 0.33694 0.23195
0.0947 0.33761 0.23204
0.09692 0.33861 0.22949
0.09454 0.33892 0.22937
0.09711 0.33978 0.22676
0.09475 0.34037 0.22676
0.09508 0.34101 0.22383
0.0975 0.34104 0.2241
0.09773 0.34249 0.22152
0.09531 0.34242 0.2212
0.09562 0.34385 0.2186
0.0899 0.317 0.26023
0.08986 0.31906 0.25802
0.09031 0.32103 0.25583
0.09093 0.32277 0.25351
0.09134 0.32409 0.25087
0.09181 0.32526 0.24816
0.09201 0.32671 0.24553
0.09219 0.32861 0.2432
0.09259 0.33069 0.24107
0.09264 0.33296 0.23913
0.09268 0.33514 0.23709
0.09279 0.33739 0.235
0.09247 0.33847 0.23216
0.09217 0.33928 0.22931
0.09234 0.34053 0.22659
0.09267 0.34112 0.22365
0.0929 0.34211 0.22082
0.09321 0.3435 0.21818
0.09404 0.34483 0.21561
0.09646 0.34524 0.21611
0.09514 0.34667 0.2135
0.0976 0.34666 0.21377
0.09777 0.34849 0.21141
0.0953 0.34867 0.21127
0.08771 0.31758 0.26028
0.08765 0.31954 0.258
0.08811 0.3216 0.25586
0.08877 0.32348 0.25364
0.08927 0.32502 0.25113
0.0897 0.32615 0.2484
0.08989 0.32759 0.24577
0.08998 0.32924 0.24326
0.09032 0.33112 0.24093
0.09035 0.33321 0.23878
0.09034 0.3356 0.23697
0.09034 0.33799 0.23493
0.09009 0.33881 0.23194
0.08981 0.3396 0.22907
0.08995 0.34063 0.22626
0.09024 0.34116 0.22331
0.09044 0.34233 0.22053
0.09072 0.34361 0.2178
0.09154 0.34516 0.21533
0.09268 0.34699 0.21323
0.09286 0.34916 0.21113
0.08553 0.31813 0.26047
0.08544 0.32002 0.25812
0.08588 0.32201 0.25589
0.08656 0.32402 0.25379
0.08714 0.32583 0.25146
0.08758 0.32694 0.2487
0.08767 0.32812 0.24594
0.08771 0.3296 0.24332
0.08802 0.33122 0.24081
0.08807 0.33301 0.23838
0.08811 0.33516 0.23627
0.08811 0.33721 0.23407
0.08774 0.3387 0.23149
0.08746 0.33996 0.22878
0.08759 0.34101 0.22597
0.08784 0.34161 0.223
0.08808 0.343 0.22032
0.08839 0.34452 0.21774
0.08917 0.34599 0.21522
0.0903 0.34769 0.213
0.0905 0.34996 0.21102
0.08335 0.3185 0.26082
0.08321 0.32029 0.25838
0.08364 0.32229 0.25615
0.0843 0.3242 0.25396
0.08485 0.32598 0.25162
0.08534 0.32728 0.24897
0.0854 0.32833 0.24615
0.08541 0.3296 0.24342
0.08571 0.33099 0.24077
0.08582 0.33245 0.23814
0.08599 0.33428 0.23574
0.08601 0.33625 0.23348
0.08544 0.33811 0.23119
0.08506 0.33989 0.2288
0.08521 0.34138 0.22618
0.08547 0.34217 0.22326
0.0857 0.34352 0.22055
0.08609 0.34531 0.21815
0.08685 0.34673 0.21561
0.08788 0.34823 0.21322
0.08808 0.35047 0.21118
0.08098 0.32047 0.2587
0.08114 0.31868 0.26116
0.08141 0.32251 0.25652
0.08206 0.32439 0.25429
0.08257 0.32589 0.25175
0.08305 0.32725 0.24912
0.08312 0.32836 0.24633
0.08311 0.32943 0.24352
0.08342 0.33062 0.24078
0.08357 0.33183 0.23801
0.08379 0.33343 0.23544
0.08381 0.33543 0.23317
0.08316 0.33745 0.23104
0.08269 0.33959 0.22897
0.08284 0.34145 0.2266
0.08316 0.34264 0.22384
0.08335 0.34391 0.22111
0.08367 0.34551 0.21856
0.08447 0.34709 0.21613
0.08552 0.34868 0.21381
0.08566 0.35073 0.2116
0.07876 0.32053 0.25907
0.07891 0.3187 0.2615
0.07918 0.32258 0.25689
0.07984 0.32462 0.25479
0.0803 0.32573 0.25203
0.0808 0.32686 0.2493
0.08084 0.32811 0.24657
0.08084 0.32909 0.24373
0.08115 0.33015 0.24093
0.08128 0.33131 0.23814
0.0815 0.33277 0.23549
0.08151 0.33476 0.23319
0.08083 0.33698 0.23127
0.08035 0.33922 0.22932
0.08049 0.34141 0.22723
0.08088 0.34293 0.22463
0.08106 0.34422 0.22191
0.08132 0.34562 0.21926
0.08209 0.3471 0.21675
0.08312 0.34863 0.21438
0.08325 0.35062 0.21212
0.07653 0.32043 0.25947
0.07696 0.32256 0.25734
0.07761 0.32463 0.25528
0.07809 0.32604 0.25265
0.07857 0.32641 0.24967
0.07863 0.3275 0.24685
0.07861 0.32854 0.24403
0.07888 0.32973 0.24129
0.07898 0.33092 0.23851
0.07917 0.33242 0.23589
0.07919 0.33444 0.23364
0.07852 0.33657 0.23163
0.07803 0.33863 0.2295
0.07813 0.34081 0.22743
0.07854 0.34294 0.22532
0.07874 0.34436 0.22266
0.07896 0.34562 0.21993
0.07971 0.34707 0.2174
0.08073 0.34856 0.21501
0.08084 0.35042 0.21265
0.07472 0.32237 0.25772
0.0743 0.3204 0.26
0.07537 0.32436 0.25558
0.07583 0.32601 0.25307
0.0763 0.32623 0.25005
0.07637 0.32703 0.24712
0.07633 0.32818 0.24432
0.07659 0.32939 0.24157
0.07667 0.33077 0.23888
0.07685 0.33244 0.23636
0.0769 0.33459 0.23423
0.07616 0.33631 0.23187
0.07569 0.3381 0.22949
0.07577 0.34029 0.22742
0.07613 0.34257 0.22548
0.07634 0.34446 0.22313
0.07655 0.34557 0.22033
0.07728 0.34702 0.21778
0.0783 0.34864 0.21548
0.07839 0.35044 0.21307
0.07833 0.35224 0.21065
0.07245 0.32247 0.25799
0.0721 0.32078 0.26048
0.07309 0.32426 0.25567
0.07356 0.32574 0.25309
0.07399 0.32621 0.25013
0.07404 0.32695 0.24718
0.074 0.32815 0.24439
0.07426 0.32944 0.24167
0.07434 0.33091 0.23901
0.07455 0.33276 0.23662
0.07454 0.33487 0.23445
0.07379 0.33622 0.23183
0.07328 0.33801 0.22944
0.07336 0.34019 0.22734
0.07371 0.34242 0.22534
0.07386 0.34444 0.22307
0.07412 0.3454 0.22016
0.07482 0.34691 0.21763
0.07583 0.34867 0.21541
0.07592 0.3504 0.21294
0.07584 0.35229 0.21059
0.07023 0.32287 0.25834
0.06991 0.32115 0.2608
0.07081 0.32443 0.25585
0.07128 0.32578 0.2532
0.07171 0.32657 0.25033
0.07173 0.32726 0.24738
0.07167 0.32828 0.24452
0.07193 0.32953 0.24177
0.07201 0.3309 0.23905
0.07221 0.33263 0.23655
0.07218 0.33452 0.2342
0.0714 0.33618 0.2318
0.07088 0.3381 0.22952
0.07094 0.34018 0.22733
0.07132 0.3421 0.22502
0.07149 0.34393 0.22263
0.07164 0.34551 0.22007
0.07234 0.34694 0.21749
0.07337 0.34854 0.21516
0.07345 0.35033 0.21272
0.06801 0.32328 0.25842
0.06767 0.32141 0.26076
0.06859 0.32491 0.25598
0.06906 0.32631 0.25334
0.06946 0.32706 0.25045
0.06947 0.32779 0.24751
0.06937 0.32869 0.24461
0.0696 0.3298 0.24178
0.06965 0.33107 0.23901
0.06985 0.33272 0.23646
0.06981 0.33462 0.23409
0.06901 0.33638 0.23176
0.06849 0.33831 0.2295
0.06854 0.34016 0.22711
0.06892 0.34189 0.22466
0.06907 0.34377 0.22229
0.06918 0.34584 0.22007
0.06989 0.34737 0.21754
0.07089 0.34864 0.21499
0.07097 0.35042 0.21252
0.07336 0.35236 0.21048
0.06542 0.32165 0.26061
0.06578 0.32365 0.25836
0.06638 0.32543 0.25601
0.06685 0.32688 0.25341
0.06726 0.3277 0.25053
0.06728 0.32854 0.24762
0.06716 0.32946 0.24472
0.06735 0.3305 0.24187
0.06736 0.3317 0.23907
0.06752 0.33323 0.23644
0.06746 0.33498 0.23396
0.06667 0.33686 0.23173
0.06611 0.33866 0.22937
0.06614 0.34033 0.22684
0.0665 0.34206 0.22438
0.06665 0.34382 0.22192
0.06681 0.34549 0.21939
0.06745 0.34742 0.21714
0.06847 0.34919 0.21495
0.06851 0.35063 0.21226
0.06352 0.32393 0.25826
0.06317 0.32201 0.26058
0.06414 0.32583 0.25599
0.06463 0.32743 0.25348
0.06511 0.32851 0.25069
0.06515 0.3294 0.24779
0.06505 0.33041 0.24493
0.0652 0.33139 0.24205
0.0652 0.33262 0.23926
0.06532 0.33407 0.23659
0.06518 0.33568 0.23402
0.06435 0.33748 0.23173
0.06378 0.33922 0.22933
0.06376 0.34073 0.2267
0.0641 0.34216 0.22405
0.06428 0.34352 0.22132
0.06438 0.34544 0.21893
0.065 0.3477 0.21698
0.06602 0.34969 0.21491
0.06606 0.35089 0.21207
0.06127 0.32425 0.25824
0.06094 0.32241 0.26065
0.06189 0.32614 0.25596
0.0624 0.3279 0.25355
0.06292 0.32917 0.25086
0.063 0.33021 0.248
0.06294 0.33132 0.24518
0.06311 0.33239 0.24233
0.06311 0.33364 0.23956
0.06317 0.33501 0.23684
0.063 0.33661 0.23427
0.0621 0.33826 0.23191
0.06146 0.33984 0.22941
0.06137 0.3411 0.22666
0.06167 0.34227 0.22387
0.06182 0.34349 0.22105
0.06193 0.34542 0.21865
0.06255 0.34766 0.21667
0.06358 0.34933 0.21438
0.06359 0.35113 0.21192
0.05901 0.32455 0.25831
0.0587 0.32277 0.26075
0.05961 0.32633 0.25593
0.06013 0.32818 0.25359
0.06072 0.32974 0.25107
0.06087 0.33102 0.24832
0.06082 0.33218 0.24552
0.061 0.33326 0.24268
0.06104 0.33464 0.23996
0.06121 0.33622 0.23736
0.06086 0.33753 0.23465
0.05989 0.33908 0.23224
0.05913 0.34037 0.22961
0.05899 0.34156 0.22682
0.05924 0.34256 0.22396
0.05935 0.34367 0.22109
0.05944 0.34543 0.21854
0.06008 0.34757 0.21646
0.06108 0.34935 0.21423
0.06111 0.35143 0.21202
0.05678 0.32494 0.25865
0.05649 0.32316 0.26109
0.05735 0.32662 0.2562
0.05786 0.3284 0.25379
0.05848 0.33012 0.25138
0.05875 0.33176 0.24884
0.05869 0.33292 0.24604
0.05885 0.33398 0.24319
0.0589 0.33537 0.24047
0.05921 0.33729 0.23808
0.05866 0.33816 0.23518
0.05759 0.33947 0.23266
0.05683 0.34087 0.23007
0.0567 0.34216 0.22734
0.05689 0.34308 0.22445
0.05693 0.34405 0.22154
0.05699 0.34571 0.21893
0.0576 0.34769 0.21667
0.05866 0.34976 0.21473
0.05874 0.35195 0.21262
0.0546 0.32541 0.25911
0.05427 0.32348 0.26143
0.05513 0.32697 0.25657
0.05563 0.32877 0.25418
0.05621 0.33032 0.25164
0.05652 0.33218 0.24925
0.05653 0.33357 0.24654
0.05667 0.33457 0.24367
0.05672 0.33599 0.24098
0.05689 0.33772 0.23847
0.05639 0.33857 0.23557
0.05528 0.33991 0.23308
0.05455 0.3414 0.23053
0.0544 0.3427 0.22779
0.05466 0.34388 0.22501
0.0547 0.34498 0.22217
0.05462 0.34634 0.21942
0.0552 0.34824 0.21706
0.05625 0.35026 0.21505
0.05636 0.35251 0.21303
0.05234 0.32545 0.25926
0.05202 0.32358 0.26163
0.05289 0.32717 0.25683
0.05338 0.32903 0.25449
0.05395 0.33056 0.25193
0.05421 0.33212 0.24934
0.05422 0.3336 0.2467
0.0544 0.33493 0.24398
0.05443 0.33626 0.24125
0.05452 0.3377 0.23857
0.05413 0.33915 0.23595
0.05301 0.34049 0.23347
0.0522 0.34171 0.23081
0.05206 0.34313 0.22812
0.05251 0.3449 0.22565
0.05282 0.34642 0.22301
0.05248 0.3474 0.2201
0.05289 0.34905 0.21753
0.05402 0.35118 0.21566
0.05409 0.35337 0.21354
0.05005 0.32542 0.25932
0.04977 0.32374 0.26184
0.05062 0.32727 0.25699
0.05109 0.32904 0.25457
0.05166 0.33058 0.25203
0.0519 0.33221 0.24948
0.0519 0.33352 0.24674
0.05208 0.33502 0.24411
0.05212 0.33653 0.24147
[...]
CELL_DATA 1107
SCALARS brightness_temperature float
LOOKUP_TABLE default
POINT_DATA 603
CELL_DATA 1107
SCALARS emission_angle float
LOOKUP_TABLE default
POINT_DATA 603
CELL_DATA 1107
SCALARS incidence_angle float
LOOKUP_TABLE default
POINT_DATA 603
CELL_DATA 1107
SCALARS phase_angle float
LOOKUP_TABLE default
POINT_DATA 603
CELL_DATA 1107
SCALARS local_solar_time float
LOOKUP_TABLE default
POINT_DATA 603
CELL_DATA 1107
SCALARS local_solar_time_normal_vector float
LOOKUP_TABLE default
CELL_DATA 1107
SCALARS pixel_x float
LOOKUP_TABLE default
POINT_DATA 603
CELL_DATA 1107
SCALARS pixel_y float
LOOKUP_TABLE default
POINT_DATA 603
CELL_DATA 1107
SCALARS longitude float
LOOKUP_TABLE default
POINT_DATA 603
CELL_DATA 1107
SCALARS latitude float
LOOKUP_TABLE default
