# vtk DataFile Version 3.0
SHAPE_sfm_50k_v20200323
ASCII
DATASET POLYDATA
POINTS 737 float
0.12359 0.22017 0.38198
0.12281 0.22044 0.38453
0.1254 0.22042 0.38434
0.12411 0.22067 0.38712
0.12672 0.22072 0.38692
0.12536 0.22053 0.38971
0.12796 0.22039 0.38952
0.12175 0.22213 0.37839
0.12139 0.22115 0.38019
0.12386 0.2206 0.37995
0.12615 0.22007 0.38183
0.12799 0.22045 0.38407
0.12932 0.22039 0.38666
0.13048 0.21976 0.38926
0.11856 0.2286 0.37092
0.11745 0.22731 0.37286
0.11986 0.22664 0.37263
0.11866 0.22546 0.37476
0.12106 0.22473 0.37448
0.11997 0.22374 0.37673
0.12239 0.22301 0.37645
0.12418 0.22138 0.37813
0.12636 0.22001 0.3798
0.12871 0.21986 0.38161
0.13045 0.21965 0.38382
0.1316 0.21909 0.38642
0.11471 0.23818 0.36293
0.11422 0.23713 0.36454
0.11662 0.23646 0.36434
0.11557 0.2352 0.36618
0.11792 0.23449 0.36589
0.11639 0.23296 0.36777
0.11873 0.23222 0.36745
0.11731 0.23068 0.36932
0.11971 0.23006 0.36911
0.12098 0.228 0.37069
0.12226 0.22595 0.37228
0.12347 0.22404 0.3741
0.1248 0.2223 0.37604
0.12663 0.22069 0.37773
0.12883 0.21953 0.37939
0.131 0.21884 0.38113
0.13252 0.21812 0.38339
0.13379 0.21774 0.38596
0.11334 0.24141 0.36044
0.11289 0.24038 0.36201
0.11504 0.23922 0.36138
0.11712 0.2376 0.3627
0.11904 0.236 0.36411
0.12025 0.23382 0.36546
0.12109 0.23158 0.36704
0.12212 0.22951 0.36876
0.1234 0.22747 0.37031
0.1247 0.22546 0.3719
0.12591 0.22351 0.37364
0.12725 0.22174 0.37554
0.12908 0.22022 0.37721
0.13116 0.21882 0.37867
0.13308 0.21756 0.38032
0.13454 0.2167 0.38262
0.11278 0.24501 0.35725
0.11216 0.24388 0.35956
0.11401 0.24269 0.35839
0.11551 0.24055 0.35955
0.11743 0.23881 0.36079
0.11946 0.23723 0.36206
0.12123 0.23534 0.3632
0.12247 0.23319 0.36458
0.12347 0.23124 0.36643
0.12452 0.22926 0.36818
0.12582 0.22732 0.36977
0.1271 0.22519 0.3712
0.12832 0.22322 0.3729
0.12965 0.22145 0.37475
0.13142 0.21982 0.37627
0.13336 0.21815 0.37751
0.13493 0.21628 0.37896
0.13617 0.21507 0.38135
0.1105 0.25269 0.34984
0.1096 0.25134 0.35255
0.11167 0.2507 0.35147
0.1107 0.2494 0.35433
0.11274 0.24871 0.35316
0.11164 0.24727 0.35592
0.11366 0.24652 0.35466
0.11477 0.24424 0.35597
0.11616 0.24213 0.35729
0.11775 0.24019 0.35858
0.1196 0.23837 0.35973
0.12161 0.23678 0.36096
0.1234 0.23492 0.36208
0.12471 0.23288 0.36355
0.12575 0.23105 0.36547
0.12688 0.22931 0.36739
0.12811 0.2272 0.36879
0.12943 0.22515 0.37026
0.13067 0.22321 0.37193
0.13198 0.22141 0.3737
0.13366 0.21961 0.37504
0.13552 0.21777 0.37611
0.13704 0.21576 0.37741
0.1379 0.21398 0.37956
0.11272 0.25237 0.34889
0.11389 0.25043 0.35054
0.11493 0.24844 0.3522
0.11581 0.24616 0.35357
0.11695 0.24392 0.35489
0.11833 0.24181 0.3562
0.11997 0.23998 0.35755
0.12186 0.23827 0.35874
0.12379 0.23653 0.35981
0.12564 0.23478 0.36101
0.127 0.23287 0.36255
0.12803 0.23107 0.36447
0.12913 0.22928 0.36632
0.13038 0.22719 0.36771
0.13174 0.22526 0.36926
0.13297 0.22332 0.37089
0.1343 0.22157 0.37265
0.13588 0.21952 0.37374
0.13765 0.21752 0.37466
0.13919 0.21555 0.37593
0.14002 0.21368 0.3779
0.11504 0.25219 0.34823
0.11614 0.25016 0.34977
0.11709 0.24799 0.35125
0.118 0.24575 0.35265
0.11918 0.24353 0.35396
0.12064 0.24158 0.35538
0.12227 0.23976 0.3567
0.12415 0.23807 0.35787
0.12611 0.23637 0.35894
0.128 0.23475 0.36023
0.12939 0.23295 0.36184
0.13039 0.23111 0.36369
0.13145 0.2292 0.36541
0.13275 0.22723 0.36689
0.13411 0.22532 0.36841
0.13533 0.22334 0.36996
0.13655 0.22133 0.37145
0.13813 0.2193 0.37252
0.13986 0.21725 0.37335
0.14136 0.2152 0.37454
0.14224 0.21339 0.3765
0.11738 0.25214 0.34775
0.1184 0.24991 0.34904
0.11932 0.24765 0.35042
0.12029 0.24546 0.35188
0.12154 0.24339 0.3533
0.123 0.24149 0.35472
0.12464 0.23973 0.35607
0.12651 0.23799 0.35716
0.12851 0.2364 0.35832
0.13036 0.23473 0.35954
0.13173 0.23293 0.36113
0.13272 0.23104 0.3629
0.13377 0.22907 0.36456
0.13509 0.22715 0.36606
0.13643 0.22519 0.3675
0.13767 0.22324 0.36903
0.1389 0.22122 0.37048
0.1404 0.21903 0.37135
0.14209 0.21692 0.37207
0.1436 0.21488 0.37324
0.14449 0.21309 0.3752
0.1197 0.25194 0.34729
0.1207 0.24962 0.34843
0.12164 0.24738 0.34983
0.12267 0.24534 0.35145
0.12391 0.24328 0.35287
0.12539 0.24141 0.35429
0.12701 0.23958 0.35551
0.1289 0.23789 0.35663
0.1309 0.23631 0.3578
0.13265 0.23442 0.35879
0.13392 0.23241 0.36017
0.1349 0.23049 0.36191
0.13598 0.22857 0.3636
0.13731 0.22665 0.36507
0.13867 0.2247 0.36649
0.13993 0.22278 0.36802
0.14113 0.22068 0.36936
0.14271 0.2186 0.37031
0.14443 0.2165 0.37102
0.14597 0.21452 0.37219
0.14681 0.21266 0.37408
0.12202 0.25164 0.34691
0.12301 0.24929 0.34799
0.12399 0.24712 0.34944
0.12498 0.24498 0.35093
0.12625 0.24297 0.35239
0.12775 0.24112 0.35379
0.12941 0.2394 0.3551
0.13124 0.23756 0.35605
0.13321 0.2359 0.35712
0.13479 0.23374 0.35783
0.13592 0.23155 0.35905
0.13693 0.22964 0.36081
0.13805 0.22777 0.36252
0.1394 0.22587 0.36399
0.14086 0.22405 0.36547
0.14219 0.22223 0.36703
0.14341 0.22013 0.36837
0.14503 0.21808 0.36933
0.14685 0.21614 0.37016
0.14838 0.21416 0.37129
0.1492 0.21222 0.37309
0.12423 0.25115 0.34622
0.12527 0.24888 0.34741
0.12629 0.24679 0.34893
0.1273 0.24466 0.35039
0.12862 0.24275 0.35194
0.13012 0.24092 0.35333
0.13174 0.23907 0.35448
0.13358 0.23728 0.35544
0.13532 0.23522 0.35606
0.13675 0.23292 0.35659
0.13788 0.2307 0.3578
0.13886 0.22875 0.35953
0.13998 0.22686 0.36123
0.14143 0.22507 0.36276
0.14298 0.22339 0.3643
0.14435 0.2216 0.36585
0.14571 0.2197 0.36732
0.14742 0.21781 0.36839
0.14924 0.2159 0.3692
0.15076 0.21388 0.37029
0.15163 0.21202 0.37215
0.12536 0.25271 0.34396
0.1264 0.25061 0.3454
0.12754 0.24851 0.34678
0.12861 0.24656 0.34842
0.12967 0.24454 0.34998
0.13099 0.24263 0.3515
0.13252 0.24086 0.35293
0.13411 0.23892 0.35393
0.13582 0.23687 0.35455
0.1374 0.23462 0.3549
0.13876 0.23225 0.35532
0.13985 0.22998 0.35647
0.14081 0.22798 0.35817
0.14194 0.22609 0.35987
0.14348 0.22441 0.36144
0.14511 0.22284 0.36302
0.14658 0.22122 0.36465
0.14805 0.21956 0.36627
0.14981 0.21779 0.36741
0.15162 0.21587 0.36819
0.15312 0.21382 0.36921
0.15397 0.21191 0.37102
0.12762 0.25209 0.34346
0.12866 0.24999 0.3449
0.12983 0.24799 0.34637
0.13091 0.24606 0.34801
0.13201 0.24416 0.34968
0.13335 0.24231 0.35123
0.13483 0.24038 0.35246
0.13639 0.23836 0.35331
0.13798 0.23616 0.35366
0.13947 0.23382 0.35384
0.14088 0.23148 0.35428
0.14199 0.22923 0.35542
0.14298 0.22726 0.35712
0.14416 0.2254 0.3588
0.14575 0.22381 0.36041
0.14744 0.22239 0.36205
0.14901 0.22104 0.36381
0.1505 0.2195 0.3655
0.15222 0.21766 0.36655
0.15401 0.2157 0.36725
0.15551 0.21363 0.3682
0.15632 0.21163 0.36991
0.12987 0.25155 0.3429
0.13097 0.24959 0.34445
0.13214 0.24761 0.34592
0.13324 0.24575 0.3476
0.13432 0.24382 0.34921
0.13564 0.24188 0.35062
0.13712 0.23994 0.35181
0.13859 0.23778 0.35243
0.1401 0.23553 0.35262
0.1416 0.23321 0.35276
0.14303 0.23087 0.35316
0.14423 0.22868 0.35438
0.14527 0.22677 0.35612
0.14656 0.22515 0.35795
0.14819 0.22375 0.35964
0.14991 0.22245 0.36133
0.15148 0.22122 0.36316
0.15293 0.21953 0.36469
0.1546 0.21759 0.36556
0.15638 0.21562 0.36621
0.15793 0.21362 0.36723
0.15871 0.21156 0.36885
0.13208 0.25117 0.34218
0.1332 0.24926 0.34374
0.13439 0.24732 0.34523
0.13549 0.24547 0.3469
0.13656 0.24347 0.34841
0.13794 0.24169 0.34993
0.13939 0.23966 0.35098
0.14081 0.23746 0.35147
0.14228 0.2352 0.35154
0.1438 0.2329 0.35166
0.14534 0.23065 0.35219
0.14661 0.22858 0.35353
0.1477 0.22683 0.35539
0.149 0.22543 0.35734
0.15062 0.22402 0.35899
0.15235 0.22287 0.36075
0.15391 0.22159 0.36253
0.15535 0.21979 0.36393
0.15698 0.21776 0.36463
0.15876 0.21576 0.36522
0.16033 0.21381 0.36627
0.16106 0.21164 0.36772
0.13422 0.25096 0.34118
0.13534 0.24907 0.34274
0.13657 0.24724 0.3443
0.13767 0.24536 0.34592
0.13882 0.24357 0.34758
0.1402 0.24179 0.34908
0.1416 0.23968 0.35
0.14297 0.23742 0.35035
0.14447 0.23517 0.35041
0.14607 0.23297 0.35068
0.14768 0.23082 0.35133
0.14898 0.22886 0.35278
0.15007 0.22718 0.35466
0.15136 0.22576 0.35658
0.15299 0.22455 0.35834
0.15471 0.22343 0.3601
0.15632 0.22235 0.36204
0.15772 0.22022 0.36308
0.15926 0.21804 0.36351
0.16106 0.21606 0.36408
0.16261 0.21408 0.36505
0.1633 0.21185 0.3664
0.16358 0.20977 0.36813
0.13619 0.25083 0.33985
0.1373 0.24891 0.34138
0.13861 0.24723 0.34306
0.1398 0.24561 0.34486
0.14094 0.24384 0.3465
0.14228 0.24198 0.34788
0.14369 0.2399 0.34878
0.14511 0.23769 0.3492
0.14666 0.23551 0.34936
0.14831 0.23336 0.34971
0.14996 0.23132 0.35048
0.15125 0.22938 0.35193
0.15233 0.22769 0.35378
0.15362 0.22628 0.35569
0.15527 0.22512 0.35747
0.15699 0.22402 0.35922
0.15868 0.22283 0.36105
0.15994 0.22051 0.36185
0.16147 0.21833 0.36226
0.16333 0.21647 0.36294
0.16496 0.21464 0.36407
0.16561 0.21235 0.36526
0.16576 0.21005 0.36668
0.13815 0.25096 0.33848
0.13927 0.24904 0.34001
0.14062 0.24747 0.34179
0.14183 0.24601 0.34368
0.14298 0.24423 0.3453
0.14437 0.2425 0.34678
0.1458 0.24044 0.34771
0.14719 0.2382 0.34804
0.14879 0.23605 0.34826
0.1505 0.23401 0.34878
0.15216 0.23204 0.34964
0.15344 0.23006 0.351
0.15451 0.22833 0.35279
0.1558 0.22686 0.35464
0.15744 0.22564 0.35637
0.15914 0.22432 0.35796
0.1606 0.22254 0.35932
0.16194 0.22044 0.36027
0.16365 0.21846 0.36093
0.16561 0.2168 0.36179
0.16726 0.21504 0.36294
0.16802 0.2129 0.36435
0.16804 0.21042 0.36543
0.14028 0.25112 0.3374
0.14143 0.24926 0.33898
0.14275 0.24774 0.34076
0.14395 0.24622 0.34262
0.14517 0.24462 0.34439
0.14657 0.24283 0.34583
0.14791 0.24062 0.34655
0.1493 0.23839 0.34686
0.15099 0.23633 0.34724
0.15278 0.23445 0.34802
0.15445 0.23252 0.34889
0.15572 0.23054 0.35021
0.15677 0.2287 0.35189
0.15806 0.22717 0.35368
0.15968 0.2258 0.35529
0.1613 0.22421 0.35668
0.16267 0.22227 0.35789
0.16414 0.22031 0.35899
0.16592 0.21845 0.35976
0.16785 0.21674 0.36054
0.16957 0.21503 0.36171
0.17006 0.21258 0.36276
0.17025 0.21025 0.3641
0.14251 0.25108 0.33659
0.14367 0.24927 0.3382
0.14495 0.24762 0.33987
0.14606 0.24589 0.34157
0.14723 0.24418 0.34326
0.1486 0.24234 0.3446
0.15004 0.24027 0.34542
0.15156 0.23819 0.34592
0.15338 0.23638 0.34668
0.15513 0.23443 0.34735
[...]
CELL_DATA 1359
SCALARS brightness_temperature float
LOOKUP_TABLE default
POINT_DATA 737
CELL_DATA 1359
SCALARS emission_angle float
LOOKUP_TABLE default
POINT_DATA 737
CELL_DATA 1359
SCALARS incidence_angle float
LOOKUP_TABLE default
POINT_DATA 737
CELL_DATA 1359
SCALARS phase_angle float
LOOKUP_TABLE default
POINT_DATA 737
CELL_DATA 1359
SCALARS local_solar_time float
LOOKUP_TABLE default
POINT_DATA 737
CELL_DATA 1359
SCALARS local_solar_time_normal_vector float
LOOKUP_TABLE default
CELL_DATA 1359
SCALARS pixel_x float
LOOKUP_TABLE default
POINT_DATA 737
CELL_DATA 1359
SCALARS pixel_y float
LOOKUP_TABLE default
POINT_DATA 737
CELL_DATA 1359
SCALARS longitude float
LOOKUP_TABLE default
POINT_DATA 737
CELL_DATA 1359
SCALARS latitude float
LOOKUP_TABLE default
