# vtk DataFile Version 3.0
SHAPE_sfm_50k_v20200323
ASCII
DATASET POLYDATA
POINTS 1773 float
0.36452 0.10893 0.16497
0.36682 0.10804 0.16315
0.36507 0.10963 0.16218
0.36765 0.10789 0.16034
0.36587 0.10938 0.15943
0.36704 0.10879 0.15691
0.35965 0.10769 0.17153
0.36183 0.10649 0.16942
0.36074 0.10862 0.16906
0.36317 0.1074 0.16707
0.3619 0.10942 0.1666
0.36279 0.11054 0.16409
0.36322 0.11102 0.16129
0.36427 0.11111 0.15864
0.36543 0.11052 0.15611
0.36677 0.10974 0.15371
0.36854 0.10823 0.15456
0.36807 0.10958 0.15119
0.36985 0.10807 0.15206
0.37044 0.10795 0.14927
0.36901 0.10983 0.14852
0.37142 0.10798 0.14658
0.37014 0.11002 0.1459
0.37276 0.10802 0.14406
0.37166 0.11022 0.14349
0.37417 0.10815 0.1416
0.37294 0.11026 0.14095
0.37546 0.10838 0.13907
0.3741 0.1104 0.13833
0.37709 0.10835 0.13672
0.37584 0.11046 0.13603
0.3959 0.11433 0.10021
0.39828 0.11333 0.09861
0.39709 0.11569 0.098
0.39938 0.11474 0.09641
0.39831 0.11722 0.09592
0.40079 0.11598 0.09425
0.39949 0.11829 0.09355
0.35166 0.10487 0.18625
0.35292 0.1054 0.18377
0.35048 0.10692 0.18581
0.35171 0.10744 0.18331
0.3541 0.10594 0.18124
0.35269 0.10782 0.18066
0.3542 0.10789 0.17821
0.35576 0.10618 0.1789
0.35754 0.10662 0.17671
0.3558 0.10809 0.17584
0.35866 0.10694 0.17411
0.3572 0.10875 0.17345
0.35823 0.10954 0.1709
0.35934 0.1105 0.16845
0.36049 0.11134 0.16596
0.36089 0.11181 0.16314
0.36161 0.11274 0.16052
0.36274 0.11291 0.15785
0.36347 0.11182 0.15524
0.36495 0.11123 0.15285
0.36628 0.11109 0.15033
0.36725 0.1114 0.14765
0.36861 0.11187 0.14516
0.37035 0.1123 0.14293
0.37173 0.11243 0.14044
0.3729 0.1126 0.13783
0.37466 0.11269 0.13555
0.37671 0.11273 0.13355
0.37797 0.11055 0.13411
0.3788 0.11291 0.13164
0.38006 0.11073 0.1322
0.3813 0.11088 0.12964
0.38 0.11304 0.12907
0.38134 0.11279 0.12656
0.38266 0.11063 0.12715
0.38289 0.11223 0.12424
0.39178 0.11312 0.10679
0.39355 0.11191 0.10479
0.39252 0.11436 0.10437
0.39459 0.11314 0.10246
0.3935 0.11558 0.10199
0.39481 0.11677 0.09974
0.39584 0.11803 0.09739
0.39688 0.1194 0.09513
0.39793 0.12035 0.09265
0.34959 0.10904 0.18521
0.35069 0.1095 0.18264
0.35161 0.10988 0.17996
0.35296 0.10984 0.17741
0.35473 0.11019 0.17518
0.35603 0.11074 0.17271
0.35692 0.1114 0.17008
0.35782 0.11213 0.16747
0.35869 0.11261 0.16482
0.35916 0.11316 0.16204
0.35987 0.11412 0.15942
0.36087 0.11416 0.15674
0.36189 0.11344 0.15416
0.36343 0.11292 0.15179
0.36478 0.11282 0.1493
0.36582 0.11324 0.14665
0.3673 0.11384 0.14424
0.36914 0.11438 0.14213
0.37069 0.11464 0.13977
0.37189 0.11485 0.13716
0.37386 0.11507 0.13507
0.37593 0.11515 0.1331
0.37765 0.11509 0.13086
0.37878 0.11517 0.12823
0.38035 0.11508 0.12585
0.38192 0.11454 0.12355
0.38331 0.11415 0.12112
0.38425 0.11179 0.1218
0.38534 0.112 0.11918
0.38426 0.11429 0.11845
0.38622 0.11242 0.11649
0.38506 0.11468 0.11573
0.38769 0.11254 0.11404
0.38646 0.11475 0.11321
0.38831 0.11461 0.11103
0.38937 0.1123 0.11176
0.39074 0.11235 0.10929
0.3899 0.11481 0.10871
0.39106 0.11565 0.10629
0.39173 0.11688 0.10384
0.39269 0.11811 0.10147
0.39392 0.11927 0.09917
0.3949 0.12052 0.0968
0.39576 0.12179 0.0944
0.39671 0.12268 0.09186
0.34861 0.11102 0.18434
0.34983 0.11158 0.18183
0.35097 0.11211 0.17928
0.35227 0.11208 0.17674
0.35378 0.11223 0.17432
0.35485 0.11261 0.17173
0.35562 0.11317 0.16904
0.35625 0.11363 0.1663
0.35707 0.11402 0.16361
0.35759 0.1147 0.16087
0.35817 0.11548 0.15819
0.35932 0.11572 0.15559
0.36061 0.11532 0.15309
0.3621 0.11476 0.15073
0.36346 0.1147 0.14823
0.36472 0.11536 0.14572
0.36635 0.11608 0.14346
0.36822 0.11661 0.14139
0.36985 0.11693 0.1391
0.3711 0.11719 0.13654
0.37289 0.11729 0.13429
0.37506 0.11747 0.13241
0.37668 0.11735 0.13009
0.37778 0.11743 0.12747
0.37918 0.11722 0.12499
0.38073 0.11667 0.12266
0.38239 0.11649 0.12036
0.38324 0.11659 0.11766
0.38411 0.11704 0.11496
0.38556 0.11716 0.11249
0.38737 0.11699 0.11029
0.38908 0.11726 0.10805
0.39012 0.11804 0.10556
0.39104 0.11941 0.10327
0.39206 0.12069 0.10097
0.39317 0.12181 0.09859
0.39423 0.12311 0.09628
0.395 0.12435 0.09383
0.39562 0.12509 0.09114
0.3464 0.11284 0.18621
0.34769 0.11311 0.18366
0.34893 0.11368 0.18117
0.35029 0.11434 0.17876
0.35151 0.11427 0.17619
0.35277 0.1143 0.17364
0.35366 0.11457 0.17096
0.3545 0.11522 0.16831
0.35505 0.11566 0.16556
0.35572 0.11594 0.16281
0.35647 0.11682 0.16019
0.35688 0.11749 0.15745
0.35805 0.11773 0.15485
0.35941 0.11741 0.15239
0.36092 0.11688 0.15004
0.36243 0.11694 0.14762
0.36393 0.11775 0.14533
0.36563 0.1185 0.14316
0.3675 0.11902 0.14108
0.36899 0.11928 0.13869
0.37039 0.11963 0.13625
0.37173 0.11949 0.13373
0.37355 0.11937 0.13152
0.37546 0.11953 0.12943
0.37663 0.11966 0.12685
0.37785 0.11935 0.12429
0.37938 0.11878 0.12194
0.38099 0.11857 0.11962
0.3821 0.11886 0.11703
0.38302 0.11936 0.11438
0.38449 0.11952 0.11194
0.38624 0.11933 0.10971
0.38791 0.11957 0.10743
0.38933 0.12059 0.10521
0.39012 0.1219 0.10285
0.39099 0.12311 0.10045
0.39218 0.12429 0.09815
0.39331 0.12565 0.0959
0.39377 0.12673 0.0933
0.3946 0.1276 0.09072
0.34534 0.11487 0.18566
0.34671 0.11521 0.18318
0.34797 0.1158 0.18071
0.34911 0.11633 0.17817
0.35045 0.11635 0.17567
0.35161 0.11633 0.17308
0.35256 0.11666 0.17043
0.3535 0.11738 0.16784
0.35408 0.11785 0.1651
0.35472 0.11814 0.16236
0.35525 0.11889 0.15966
0.35576 0.11964 0.15697
0.35685 0.11984 0.15436
0.35836 0.11963 0.15197
0.3599 0.11912 0.14964
0.36169 0.11934 0.14746
0.36346 0.12023 0.14543
0.36524 0.12101 0.14335
0.36682 0.12145 0.14102
0.36811 0.12163 0.1385
0.36937 0.12193 0.13598
0.37051 0.12169 0.1334
0.372 0.12134 0.13099
0.37363 0.1212 0.12867
0.37505 0.1216 0.12624
0.37678 0.12173 0.124
0.37812 0.12107 0.1216
0.37925 0.12049 0.11904
0.38052 0.12091 0.11651
0.38171 0.12163 0.11402
0.38326 0.12185 0.11166
0.385 0.12167 0.10944
0.38666 0.12191 0.10717
0.388 0.12288 0.10489
0.38886 0.12425 0.10259
0.38984 0.12554 0.10029
0.39107 0.12676 0.09803
0.39195 0.12799 0.09562
0.3924 0.12906 0.09304
0.39328 0.12997 0.09049
0.3441 0.11683 0.18517
0.34554 0.11722 0.18274
0.34686 0.11787 0.18032
0.34789 0.11834 0.17773
0.34919 0.11833 0.17522
0.3503 0.11828 0.17261
0.35135 0.11871 0.17001
0.35223 0.1194 0.1674
0.35296 0.11997 0.16473
0.35347 0.1202 0.16196
0.35404 0.12098 0.15929
0.35465 0.12182 0.15665
0.35568 0.122 0.15402
0.35706 0.12172 0.15158
0.35881 0.12135 0.14937
0.3607 0.12162 0.14729
0.36271 0.12266 0.14557
0.36471 0.12353 0.14367
0.36621 0.12398 0.14118
0.36682 0.12379 0.13834
0.36796 0.12402 0.13576
0.36911 0.12381 0.13318
0.37034 0.12327 0.13067
0.37187 0.12307 0.12829
0.37319 0.12337 0.12577
0.37511 0.1237 0.12369
0.37667 0.12322 0.12139
0.37783 0.12273 0.11885
0.37905 0.12314 0.1163
0.38039 0.12396 0.11391
0.38205 0.12423 0.11165
0.3837 0.124 0.10938
0.38526 0.12418 0.10704
0.38656 0.12513 0.10473
0.38756 0.1266 0.10256
0.38874 0.12802 0.10041
0.3898 0.12916 0.09804
0.39052 0.1303 0.09554
0.39104 0.13142 0.093
0.39199 0.13238 0.0905
0.34307 0.11897 0.18486
0.34444 0.11929 0.18238
0.34583 0.12 0.18001
0.34694 0.12054 0.17747
0.34799 0.12038 0.17484
0.34898 0.12025 0.17219
0.35004 0.12069 0.1696
0.35097 0.12143 0.16703
0.35171 0.12202 0.16437
0.35217 0.12223 0.16159
0.35269 0.123 0.15891
0.35339 0.12392 0.15633
0.35457 0.12421 0.15378
0.35587 0.12389 0.15129
0.35752 0.12345 0.14903
0.35944 0.12374 0.14695
0.36137 0.12479 0.14517
0.36343 0.1259 0.14338
0.36472 0.1261 0.14072
0.36543 0.12586 0.13796
0.36632 0.12591 0.13528
0.36745 0.12567 0.1327
0.3687 0.12517 0.13019
0.37038 0.12515 0.12791
0.37171 0.12547 0.12543
0.37349 0.12568 0.12325
0.37512 0.12528 0.12098
0.37658 0.12504 0.11858
0.37815 0.12565 0.1163
0.37971 0.12654 0.11412
0.38117 0.12675 0.11172
0.3826 0.12643 0.10932
0.38406 0.12657 0.10692
0.38525 0.12746 0.10454
0.38618 0.12889 0.10233
0.3871 0.13014 0.09999
0.38815 0.1313 0.09764
0.38896 0.1325 0.09521
0.38947 0.13364 0.09266
0.3908 0.13485 0.09046
0.34217 0.12113 0.18451
0.34337 0.12136 0.18195
0.34455 0.12193 0.17945
0.34546 0.12232 0.17681
0.3466 0.12224 0.17424
0.34783 0.12231 0.1717
0.34897 0.12282 0.16917
0.3499 0.12356 0.1666
0.35054 0.1241 0.16391
0.35106 0.12436 0.16116
0.3515 0.1251 0.15846
0.35217 0.12602 0.15587
0.35331 0.12629 0.1533
0.35479 0.12609 0.15091
0.35657 0.12575 0.14876
0.35815 0.12581 0.14644
0.35972 0.12646 0.14418
0.36143 0.1271 0.14204
0.36277 0.12745 0.13961
0.36402 0.12779 0.13711
0.36508 0.12799 0.13451
0.36593 0.12753 0.13184
0.36723 0.1271 0.12935
0.36896 0.12714 0.12711
0.37031 0.12748 0.12466
0.37204 0.12768 0.12245
0.37382 0.12743 0.12027
0.37565 0.12746 0.11813
0.37763 0.12826 0.11627
0.37943 0.12921 0.11429
0.38109 0.12951 0.11193
0.38188 0.129 0.10921
0.38317 0.12909 0.10673
0.3841 0.12984 0.1042
0.38484 0.13115 0.10183
0.38562 0.13232 0.09942
0.38655 0.1334 0.09698
0.38752 0.13474 0.0947
0.38832 0.1361 0.09235
0.38973 0.13735 0.09026
0.34132 0.12323 0.18387
0.34236 0.1234 0.18125
0.34339 0.12386 0.17866
0.34424 0.12423 0.176
0.34553 0.12426 0.17349
0.34691 0.12444 0.17104
0.34818 0.12503 0.16859
0.34909 0.12577 0.166
0.34959 0.12624 0.16326
0.35 0.12645 0.16049
0.35039 0.12718 0.15777
0.35106 0.12811 0.15518
0.35224 0.12844 0.15265
0.35375 0.12826 0.15028
0.35544 0.12786 0.14807
0.35694 0.12786 0.1457
0.35836 0.12839 0.14331
0.3599 0.12881 0.14099
0.36138 0.12934 0.13866
0.36265 0.1297 0.13619
0.36339 0.12964 0.13348
0.36451 0.12943 0.13089
0.36594 0.12914 0.12847
0.36741 0.12893 0.12609
0.36866 0.12914 0.12356
0.37031 0.12925 0.12126
0.3723 0.12927 0.11923
0.37457 0.12979 0.11761
0.37675 0.13081 0.11611
0.37857 0.13184 0.11408
0.37989 0.13198 0.11147
0.38074 0.13135 0.10882
0.38219 0.13157 0.10641
0.38289 0.13218 0.10375
0.38354 0.13345 0.10134
0.38439 0.13469 0.099
0.38558 0.13594 0.09677
0.38664 0.13735 0.09454
0.38731 0.13862 0.09211
0.38873 0.13989 0.09009
0.34066 0.12534 0.18302
0.34161 0.12547 0.18037
0.34263 0.12594 0.17778
0.34345 0.12633 0.17511
0.34478 0.12639 0.17263
0.34626 0.12662 0.17025
0.34746 0.12719 0.16777
0.34831 0.12792 0.16514
0.34858 0.12826 0.16235
0.3489 0.12843 0.15957
0.34944 0.12927 0.15692
[...]
CELL_DATA 3374
SCALARS brightness_temperature float
LOOKUP_TABLE default
POINT_DATA 1773
CELL_DATA 3374
SCALARS emission_angle float
LOOKUP_TABLE default
POINT_DATA 1773
CELL_DATA 3374
SCALARS incidence_angle float
LOOKUP_TABLE default
POINT_DATA 1773
CELL_DATA 3374
SCALARS phase_angle float
LOOKUP_TABLE default
POINT_DATA 1773
CELL_DATA 3374
SCALARS local_solar_time float
LOOKUP_TABLE default
POINT_DATA 1773
CELL_DATA 3374
SCALARS local_solar_time_normal_vector float
LOOKUP_TABLE default
CELL_DATA 3374
SCALARS pixel_x float
LOOKUP_TABLE default
POINT_DATA 1773
CELL_DATA 3374
SCALARS pixel_y float
LOOKUP_TABLE default
POINT_DATA 1773
CELL_DATA 3374
SCALARS longitude float
LOOKUP_TABLE default
POINT_DATA 1773
CELL_DATA 3374
SCALARS latitude float
LOOKUP_TABLE default
