# vtk DataFile Version 3.0
SHAPE_sfm_50k_v20200323
ASCII
DATASET POLYDATA
POINTS 624 float
0.35343 -0.20135 0.20167
0.35605 -0.20027 0.20033
0.35442 -0.19928 0.20226
0.35489 -0.2022 0.19955
0.35753 -0.20154 0.19846
0.35299 -0.19865 0.20447
0.35551 -0.19726 0.20284
0.35401 -0.1966 0.20502
0.35711 -0.19823 0.20087
0.35866 -0.19955 0.19908
0.36018 -0.20084 0.19725
0.35658 -0.19523 0.20346
0.3553 -0.19478 0.20583
0.35816 -0.19618 0.20142
0.3596 -0.1974 0.19947
0.36119 -0.19871 0.1977
0.36274 -0.19998 0.19587
0.3617 -0.2021 0.1954
0.36419 -0.20095 0.1938
0.35766 -0.19331 0.20431
0.35657 -0.19305 0.20682
0.35901 -0.19405 0.20204
0.36032 -0.19517 0.19992
0.36182 -0.19643 0.19802
0.36338 -0.19768 0.19618
0.36485 -0.19866 0.19412
0.36635 -0.19936 0.19197
0.36549 -0.20156 0.1915
0.36782 -0.19993 0.18974
0.35854 -0.19129 0.20509
0.35753 -0.19105 0.20764
0.35992 -0.19201 0.20284
0.3611 -0.19301 0.20059
0.3624 -0.19414 0.19847
0.36389 -0.19535 0.19653
0.36555 -0.19643 0.19466
0.36717 -0.19718 0.19261
0.36867 -0.19776 0.19041
0.36978 -0.19836 0.18799
0.36899 -0.20057 0.18737
0.37061 -0.1991 0.18551
0.3596 -0.18928 0.20573
0.35842 -0.18893 0.20817
0.36095 -0.18996 0.20344
0.36223 -0.19101 0.20128
0.36348 -0.19207 0.1991
0.3648 -0.19317 0.19699
0.36641 -0.19421 0.19505
0.36812 -0.19501 0.19308
0.36969 -0.19562 0.19092
0.37076 -0.19618 0.18847
0.37169 -0.19697 0.18604
0.37281 -0.19802 0.18378
0.357 -0.18815 0.21037
0.35927 -0.18677 0.2086
0.35767 -0.18592 0.21064
0.36048 -0.18714 0.20616
0.36199 -0.18791 0.204
0.36335 -0.18902 0.20191
0.36469 -0.19014 0.19983
0.36591 -0.19113 0.1976
0.36739 -0.19207 0.19551
0.36893 -0.19275 0.19336
0.37065 -0.19342 0.19134
0.37203 -0.19416 0.18908
0.37286 -0.19491 0.18657
0.37389 -0.19587 0.18424
0.37481 -0.1966 0.18179
0.37385 -0.19883 0.18141
0.37581 -0.19722 0.17934
0.35994 -0.18454 0.20895
0.35832 -0.18369 0.21096
0.36141 -0.18503 0.2067
0.36286 -0.18575 0.20448
0.3642 -0.18686 0.20237
0.3658 -0.18812 0.20052
0.36705 -0.18911 0.19829
0.36816 -0.18982 0.1959
0.36961 -0.19045 0.19368
0.37131 -0.19108 0.19162
0.37267 -0.19179 0.18934
0.37355 -0.1926 0.18687
0.3747 -0.19356 0.1846
0.37567 -0.19432 0.18216
0.37696 -0.1951 0.17989
0.37829 -0.1957 0.17758
0.37694 -0.19768 0.1769
0.37931 -0.19616 0.17508
0.36059 -0.18229 0.20928
0.35905 -0.18149 0.21138
0.36228 -0.1829 0.20722
0.36385 -0.18369 0.20513
0.36497 -0.18466 0.20284
0.36619 -0.18573 0.20065
0.36744 -0.18672 0.19844
0.36858 -0.18746 0.19607
0.37002 -0.18808 0.19383
0.37145 -0.18864 0.19157
0.37275 -0.18934 0.18928
0.37382 -0.19017 0.18691
0.37511 -0.19114 0.18471
0.37644 -0.192 0.18249
0.37808 -0.19296 0.18054
0.37965 -0.19378 0.17844
0.3808 -0.19438 0.176
0.38169 -0.19462 0.17339
0.3801 -0.19631 0.17247
0.38182 -0.19432 0.17065
0.36145 -0.18024 0.21007
0.35987 -0.17942 0.21214
0.36304 -0.18077 0.20792
0.36475 -0.18165 0.20595
0.3658 -0.18255 0.20358
0.36667 -0.18344 0.20115
0.36784 -0.1844 0.19887
0.36904 -0.18514 0.19654
0.37036 -0.18571 0.19422
0.37157 -0.18623 0.19182
0.37289 -0.18692 0.18953
0.37421 -0.18779 0.1873
0.37551 -0.18875 0.18511
0.37689 -0.18961 0.18293
0.37847 -0.19052 0.1809
0.38051 -0.19156 0.17935
0.38222 -0.19267 0.17741
0.38343 -0.1932 0.17475
0.38325 -0.19267 0.17192
0.38312 -0.1926 0.16921
0.38202 -0.19449 0.16795
0.38332 -0.19283 0.16651
0.38238 -0.19482 0.16526
0.38402 -0.1927 0.16388
0.36224 -0.17812 0.21073
0.36077 -0.17739 0.21291
0.36382 -0.17864 0.20856
0.36531 -0.17937 0.20638
0.3665 -0.18034 0.20414
0.36728 -0.18118 0.20166
0.36825 -0.18207 0.19925
0.36939 -0.18279 0.19688
0.37059 -0.18332 0.19447
0.37199 -0.18386 0.19218
0.37318 -0.18452 0.18981
0.3744 -0.18537 0.1875
0.37593 -0.18635 0.18546
0.37732 -0.18721 0.18328
0.37895 -0.18812 0.18128
0.38087 -0.18907 0.17957
0.38276 -0.19016 0.17787
0.38442 -0.19085 0.17557
0.38429 -0.19051 0.17268
0.38415 -0.19043 0.16994
0.38445 -0.1907 0.16724
0.38487 -0.19042 0.16456
0.38532 -0.19006 0.16189
0.3846 -0.1924 0.16123
0.38575 -0.19034 0.15921
0.38517 -0.19274 0.1586
0.38623 -0.19098 0.15661
0.3596 -0.17636 0.21514
0.3617 -0.17529 0.21332
0.36054 -0.17426 0.21557
0.36308 -0.17594 0.21104
0.36476 -0.1765 0.20894
0.36627 -0.17723 0.20676
0.36746 -0.17819 0.20447
0.36802 -0.17892 0.20188
0.36871 -0.17971 0.19933
0.3698 -0.18042 0.1969
0.37099 -0.18094 0.19448
0.37231 -0.18146 0.19212
0.37349 -0.18212 0.18973
0.37473 -0.18296 0.18743
0.37629 -0.18393 0.18539
0.37789 -0.18481 0.18334
0.37979 -0.18581 0.18165
0.38186 -0.18683 0.18012
0.38357 -0.18781 0.17813
0.38494 -0.18835 0.17571
0.38529 -0.18822 0.17291
0.38539 -0.18825 0.17016
0.38557 -0.18845 0.16744
0.38602 -0.18819 0.16476
0.3866 -0.18789 0.1621
0.38691 -0.18809 0.15938
0.38715 -0.18862 0.15671
0.36244 -0.17308 0.21357
0.36123 -0.17204 0.2158
0.36401 -0.17381 0.21143
0.36572 -0.17438 0.20934
0.3671 -0.17502 0.20703
0.36859 -0.17605 0.20486
0.3689 -0.17671 0.20213
0.36919 -0.17736 0.19943
0.37033 -0.17807 0.197
0.37142 -0.17856 0.19452
0.37253 -0.17904 0.19204
0.37368 -0.1797 0.18962
0.37492 -0.18054 0.18729
0.37652 -0.18149 0.18525
0.37835 -0.18239 0.18341
0.38037 -0.1834 0.18183
0.38253 -0.18441 0.18042
0.3845 -0.18549 0.17864
0.38552 -0.18594 0.17599
0.38613 -0.18589 0.17327
0.38656 -0.18605 0.17055
0.38685 -0.18632 0.16784
0.38742 -0.18614 0.16517
0.38817 -0.18596 0.16252
0.38842 -0.1861 0.15978
0.38847 -0.18647 0.15706
0.36296 -0.17086 0.2141
0.36171 -0.16981 0.21632
0.36462 -0.17163 0.21203
0.36635 -0.17218 0.20994
0.36753 -0.17273 0.20748
0.36861 -0.17362 0.20509
0.3695 -0.17444 0.2026
0.36969 -0.17506 0.19986
0.3707 -0.17572 0.19735
0.37187 -0.17622 0.19489
0.37272 -0.17664 0.19229
0.37378 -0.17727 0.1898
0.37491 -0.1781 0.1874
0.37633 -0.17903 0.18518
0.37827 -0.17992 0.1834
0.3803 -0.18091 0.18179
0.38241 -0.18188 0.1803
0.38446 -0.18292 0.17874
0.38596 -0.18353 0.1765
0.38706 -0.18367 0.17395
0.38777 -0.18398 0.17128
0.38822 -0.18435 0.16858
0.38892 -0.18426 0.16594
0.38976 -0.18414 0.1633
0.39018 -0.18442 0.16056
0.39003 -0.18458 0.15779
0.36342 -0.16867 0.21481
0.36203 -0.16758 0.21695
0.36499 -0.16939 0.21265
0.36674 -0.16993 0.21057
0.36805 -0.17053 0.20818
0.36885 -0.1713 0.20564
0.36964 -0.17209 0.2031
0.37024 -0.1728 0.20049
0.37103 -0.17339 0.19789
0.37199 -0.17383 0.19532
0.37296 -0.17426 0.19274
0.37379 -0.17485 0.19015
0.37483 -0.17566 0.18767
0.37624 -0.17657 0.1854
0.37817 -0.17744 0.18355
0.38021 -0.17842 0.18193
0.38232 -0.17939 0.18041
0.38444 -0.18042 0.17896
0.3865 -0.18122 0.17727
0.38808 -0.18163 0.17499
0.38894 -0.18203 0.17236
0.38949 -0.18246 0.16966
0.39031 -0.18247 0.16703
0.39095 -0.18214 0.16434
0.39148 -0.18245 0.16159
0.3637 -0.16645 0.21549
0.36243 -0.16541 0.21774
0.3652 -0.16712 0.21323
0.36714 -0.16772 0.21128
0.36884 -0.16852 0.20918
0.36967 -0.16926 0.2066
0.3703 -0.16995 0.20397
0.37079 -0.17059 0.2013
0.37145 -0.17113 0.19864
0.37233 -0.17153 0.19601
0.37331 -0.17195 0.19342
0.3741 -0.17251 0.1908
0.37486 -0.17324 0.18816
0.37641 -0.17416 0.18596
0.3782 -0.17499 0.18395
0.38024 -0.17594 0.18228
0.38236 -0.17687 0.1807
0.38459 -0.17796 0.17941
0.38691 -0.17893 0.17816
0.3889 -0.1796 0.17623
0.38994 -0.18011 0.17364
0.39072 -0.18071 0.17101
0.39189 -0.18107 0.16846
0.39249 -0.18065 0.16571
0.39266 -0.18062 0.1629
0.3641 -0.16424 0.21613
0.36288 -0.16322 0.21843
0.36558 -0.16488 0.21383
0.36753 -0.16547 0.21187
0.36956 -0.16646 0.21011
0.37057 -0.1673 0.2076
0.37124 -0.16798 0.20496
0.37165 -0.16856 0.20224
0.37213 -0.16899 0.19952
0.3728 -0.16928 0.19681
0.37362 -0.16965 0.19413
0.37442 -0.1702 0.19149
0.37524 -0.17092 0.18887
0.37655 -0.17175 0.18649
0.37847 -0.1726 0.18457
0.38059 -0.17357 0.18298
0.38282 -0.17454 0.18156
0.38504 -0.17562 0.18025
0.38735 -0.17665 0.17907
0.38952 -0.17754 0.17748
0.39083 -0.17822 0.17505
0.3917 -0.17887 0.17245
0.39299 -0.1793 0.16998
0.39385 -0.17914 0.16727
0.39416 -0.17924 0.16444
0.36459 -0.162 0.21663
0.36374 -0.16115 0.21919
0.36605 -0.16263 0.2143
0.36803 -0.16323 0.21235
0.37028 -0.16428 0.21088
0.37153 -0.1653 0.20848
0.37213 -0.16592 0.20578
0.3727 -0.16656 0.20309
0.37305 -0.16692 0.20033
0.37369 -0.16716 0.1976
0.37415 -0.16736 0.19481
0.37485 -0.16788 0.19213
0.37571 -0.16859 0.18951
0.37702 -0.16941 0.18711
0.37894 -0.17024 0.18516
0.38118 -0.1713 0.18379
0.38359 -0.17258 0.18303
0.38588 -0.17395 0.18208
0.38821 -0.17497 0.18077
0.39036 -0.17572 0.17898
0.39172 -0.17638 0.17654
0.39253 -0.17696 0.17387
0.39382 -0.17732 0.1714
0.39474 -0.17719 0.16872
0.39557 -0.17769 0.166
0.36233 -0.16012 0.22147
0.3643 -0.15884 0.21955
0.3623 -0.15774 0.22134
0.36518 -0.15977 0.21698
0.36656 -0.16036 0.21458
0.36842 -0.16092 0.21251
0.37069 -0.16187 0.21103
0.37259 -0.16309 0.2091
0.37297 -0.16372 0.20623
0.37336 -0.16427 0.20349
0.37373 -0.16466 0.20073
0.37476 -0.16505 0.19813
0.37528 -0.16526 0.19536
0.37564 -0.16558 0.19255
0.37654 -0.16631 0.18993
0.37791 -0.16715 0.18756
0.37977 -0.16794 0.18553
0.38207 -0.16902 0.18419
0.38452 -0.17032 0.1836
0.38692 -0.17181 0.1831
0.38943 -0.17303 0.1821
0.39161 -0.17376 0.18014
0.39269 -0.17422 0.17742
0.39355 -0.17486 0.1748
0.39461 -0.17505 0.1722
0.39559 -0.17496 0.16956
0.3964 -0.17538 0.16688
0.36417 -0.15647 0.21933
0.36216 -0.15542 0.22105
0.36569 -0.15749 0.21717
0.36707 -0.15808 0.21478
0.36866 -0.15858 0.21248
0.37052 -0.1595 0.21054
0.37255 -0.16059 0.20881
0.37356 -0.16137 0.20621
0.37365 -0.16186 0.20338
0.37419 -0.16228 0.20062
0.37546 -0.16273 0.19811
0.37658 -0.1632 0.19555
0.37695 -0.1635 0.19271
0.37794 -0.16427 0.19014
0.37932 -0.16512 0.1878
0.38115 -0.16587 0.18572
0.38347 -0.16699 0.18441
0.38593 -0.16827 0.18378
0.38833 -0.16964 0.18306
0.39073 -0.17071 0.18183
0.39292 -0.17147 0.18001
0.39429 -0.17226 0.17752
0.39497 -0.17278 0.17478
0.39584 -0.17285 0.17209
0.39691 -0.1728 0.16947
0.36427 -0.15418 0.21895
0.36231 -0.15312 0.22072
0.36589 -0.15518 0.21686
0.36746 -0.15578 0.21457
0.36912 -0.15627 0.21233
0.37078 -0.15717 0.21021
0.37216 -0.15831 0.20802
0.37394 -0.15904 0.20588
0.37454 -0.15964 0.20314
0.37522 -0.1601 0.20043
0.37628 -0.16048 0.19782
[...]
CELL_DATA 1146
SCALARS brightness_temperature float
LOOKUP_TABLE default
POINT_DATA 624
CELL_DATA 1146
SCALARS emission_angle float
LOOKUP_TABLE default
POINT_DATA 624
CELL_DATA 1146
SCALARS incidence_angle float
LOOKUP_TABLE default
POINT_DATA 624
CELL_DATA 1146
SCALARS phase_angle float
LOOKUP_TABLE default
POINT_DATA 624
CELL_DATA 1146
SCALARS local_solar_time float
LOOKUP_TABLE default
POINT_DATA 624
CELL_DATA 1146
SCALARS local_solar_time_normal_vector float
LOOKUP_TABLE default
CELL_DATA 1146
SCALARS pixel_x float
LOOKUP_TABLE default
POINT_DATA 624
CELL_DATA 1146
SCALARS pixel_y float
LOOKUP_TABLE default
POINT_DATA 624
CELL_DATA 1146
SCALARS longitude float
LOOKUP_TABLE default
POINT_DATA 624
CELL_DATA 1146
SCALARS latitude float
LOOKUP_TABLE default
