# vtk DataFile Version 3.0
SHAPE_sfm_50k_v20200323
ASCII
DATASET POLYDATA
POINTS 1581 float
0.15523 -0.03871 0.42654
0.15242 -0.04031 0.42645
0.15492 -0.04138 0.42584
0.15203 -0.04301 0.42586
0.15452 -0.04409 0.42533
0.15768 -0.0371 0.42686
0.15778 -0.03976 0.42606
0.15747 -0.04243 0.4254
0.15704 -0.0451 0.42483
0.15407 -0.0468 0.42501
0.15655 -0.04775 0.42432
0.1602 -0.03824 0.42645
0.16031 -0.04088 0.42571
0.16 -0.04352 0.425
0.15957 -0.04615 0.42434
0.15906 -0.04872 0.42365
0.15596 -0.05028 0.42354
0.15841 -0.05109 0.42251
0.16208 -0.037 0.42671
0.16259 -0.03959 0.42605
0.1627 -0.04222 0.42528
0.16241 -0.04486 0.42463
0.16199 -0.04747 0.42399
0.16149 -0.04997 0.42314
0.16087 -0.05227 0.42185
0.15785 -0.05343 0.42123
0.1603 -0.0546 0.42052
0.16451 -0.03818 0.42608
0.16503 -0.04077 0.42544
0.16516 -0.04342 0.42482
0.16489 -0.0461 0.42435
0.16447 -0.04872 0.42384
0.16397 -0.0512 0.42295
0.16337 -0.05346 0.42157
0.16281 -0.05575 0.42017
0.16001 -0.05701 0.41921
0.16252 -0.05819 0.41896
0.15997 -0.05942 0.41787
0.16247 -0.06065 0.41774
0.16639 -0.0366 0.42583
0.16697 -0.0392 0.42526
0.16753 -0.04179 0.42476
0.1677 -0.04449 0.42441
0.16744 -0.04717 0.42415
0.16702 -0.04981 0.42379
0.16651 -0.0523 0.42292
0.16591 -0.05455 0.42153
0.16537 -0.05682 0.42012
0.16506 -0.05929 0.41899
0.16498 -0.06178 0.41789
0.16254 -0.06316 0.41659
0.16504 -0.06427 0.41677
0.16901 -0.03714 0.42501
0.16962 -0.03974 0.42455
0.17021 -0.04235 0.42424
0.1704 -0.04505 0.42405
0.17014 -0.04774 0.42398
0.16972 -0.0504 0.42382
0.16918 -0.05293 0.42307
0.16857 -0.0552 0.42177
0.16803 -0.05745 0.42034
0.1677 -0.05995 0.41931
0.16759 -0.06247 0.41834
0.16767 -0.0649 0.41717
0.16493 -0.06683 0.41581
0.16757 -0.06739 0.41608
0.16475 -0.06941 0.41501
0.16739 -0.06996 0.41523
0.17143 -0.03476 0.42487
0.17172 -0.0374 0.42437
0.17234 -0.04 0.42399
0.17295 -0.04261 0.42377
0.17314 -0.0453 0.42369
0.17287 -0.04797 0.42361
0.17246 -0.05063 0.42355
0.17194 -0.05326 0.42315
0.17128 -0.05559 0.42196
0.17072 -0.05785 0.42057
0.17038 -0.06038 0.41964
0.17025 -0.06293 0.41882
0.17031 -0.06534 0.41765
0.17024 -0.06773 0.41637
0.17007 -0.07027 0.41545
0.16704 -0.07248 0.41432
0.16972 -0.07277 0.41453
0.17417 -0.03479 0.42428
0.17448 -0.03743 0.42386
0.1751 -0.04002 0.42351
0.17569 -0.04262 0.42326
0.17586 -0.04529 0.42315
0.17558 -0.04795 0.42304
0.17513 -0.05058 0.42286
0.17463 -0.05319 0.4225
0.174 -0.05568 0.42177
0.17343 -0.05808 0.4207
0.17309 -0.0606 0.41984
0.17295 -0.06318 0.41909
0.173 -0.06559 0.41795
0.17293 -0.06791 0.41658
0.17276 -0.07041 0.41556
0.17242 -0.07292 0.41467
0.17197 -0.07533 0.4136
0.16927 -0.07519 0.41345
0.16896 -0.07763 0.41235
0.17165 -0.07777 0.41251
0.17689 -0.03469 0.42365
0.17723 -0.03734 0.42341
0.17786 -0.03992 0.42314
0.17845 -0.0425 0.42289
0.17859 -0.04516 0.42262
0.17828 -0.0478 0.42243
0.1778 -0.05041 0.42216
0.17726 -0.05299 0.42169
0.17668 -0.05555 0.4212
0.17615 -0.05808 0.42055
0.1758 -0.06061 0.41975
0.17567 -0.06317 0.41899
0.17571 -0.06561 0.41794
0.17563 -0.06795 0.41664
0.17546 -0.07038 0.41549
0.17512 -0.0729 0.41461
0.17466 -0.07537 0.4137
0.17435 -0.07783 0.4127
0.17162 -0.08031 0.41161
0.17431 -0.08037 0.41182
0.17166 -0.08288 0.41082
0.17433 -0.08293 0.41103
0.17966 -0.0346 0.42318
0.18 -0.03725 0.42306
0.18064 -0.03983 0.42287
0.18123 -0.04241 0.42263
0.18137 -0.04505 0.42232
0.18102 -0.04766 0.42196
0.18051 -0.05025 0.42157
0.17996 -0.05282 0.42111
0.17938 -0.05539 0.42065
0.17886 -0.05797 0.42019
0.17852 -0.0605 0.41948
0.17838 -0.06303 0.41864
0.17842 -0.06553 0.41774
0.17834 -0.06792 0.41658
0.17817 -0.07033 0.41541
0.17782 -0.07284 0.41449
0.17737 -0.07536 0.41372
0.17704 -0.07785 0.41284
0.17699 -0.08037 0.41196
0.17701 -0.08291 0.41111
0.17676 -0.0854 0.41019
0.18223 -0.0318 0.42298
0.18245 -0.03447 0.42287
0.18278 -0.03711 0.42279
0.18342 -0.03969 0.42267
0.18401 -0.04227 0.42249
0.18415 -0.04491 0.4222
0.18379 -0.0475 0.42175
0.18326 -0.05005 0.42121
0.18268 -0.0526 0.42065
0.18208 -0.05515 0.42017
0.18156 -0.05773 0.41974
0.18124 -0.06031 0.41921
0.18108 -0.06281 0.41831
0.18111 -0.06531 0.41741
0.18104 -0.0678 0.41646
0.18087 -0.07022 0.41534
0.18052 -0.07269 0.41438
0.18005 -0.07519 0.41356
0.17972 -0.07769 0.41272
0.17967 -0.08021 0.41187
0.17967 -0.08272 0.41096
0.17943 -0.08523 0.41009
0.17897 -0.08767 0.40911
0.1763 -0.08774 0.409
0.17841 -0.09001 0.40797
0.18521 -0.03417 0.42257
0.18499 -0.0315 0.42264
0.18554 -0.03681 0.42254
0.18618 -0.03939 0.42248
0.18676 -0.04197 0.42231
0.18691 -0.04461 0.42212
0.18656 -0.04722 0.42177
0.18602 -0.04976 0.42122
0.18542 -0.05224 0.42044
0.18479 -0.05475 0.41982
0.18424 -0.05732 0.41934
0.18391 -0.05989 0.41876
0.18375 -0.0624 0.41793
0.18376 -0.06487 0.41697
0.18369 -0.06738 0.41607
0.18354 -0.06987 0.41512
0.18317 -0.0723 0.41408
0.18269 -0.07476 0.4132
0.18235 -0.07726 0.41236
0.18228 -0.07976 0.41149
0.18228 -0.08228 0.4106
0.18204 -0.08481 0.40979
0.18161 -0.08735 0.4091
0.18105 -0.08979 0.40821
0.18038 -0.09216 0.4072
0.17774 -0.09237 0.40691
0.17966 -0.09451 0.40621
0.18795 -0.03388 0.42213
0.18774 -0.03122 0.42219
0.18829 -0.03652 0.42219
0.18892 -0.0391 0.4221
0.1895 -0.04167 0.42195
0.18967 -0.04433 0.4219
0.18933 -0.04696 0.42175
0.18878 -0.04952 0.42128
0.18817 -0.05199 0.42046
0.1875 -0.05438 0.41952
0.18691 -0.05691 0.41887
0.18653 -0.05942 0.41814
0.18636 -0.06193 0.4173
0.18635 -0.06439 0.4163
0.18621 -0.06683 0.41526
0.18607 -0.06932 0.41433
0.18572 -0.07177 0.41335
0.18521 -0.07421 0.4124
0.18488 -0.07672 0.41161
0.18483 -0.07925 0.41081
0.18484 -0.08178 0.41
0.18464 -0.08436 0.40935
0.18424 -0.08694 0.40885
0.1837 -0.08947 0.40822
0.18302 -0.09189 0.40737
0.1823 -0.09424 0.40637
0.18167 -0.09657 0.40528
0.17902 -0.09687 0.40517
0.18135 -0.09894 0.40414
0.19062 -0.0334 0.42151
0.19046 -0.03073 0.42172
0.19094 -0.03604 0.4215
0.1916 -0.03861 0.42155
0.19217 -0.04119 0.42132
0.19231 -0.04383 0.42116
0.19206 -0.04648 0.42133
0.19156 -0.04912 0.42118
0.19094 -0.05162 0.42037
0.19017 -0.05388 0.41915
0.18944 -0.05621 0.41809
0.189 -0.05869 0.41724
0.1888 -0.06117 0.41633
0.18876 -0.06361 0.4153
0.18856 -0.06601 0.41418
0.18832 -0.06843 0.41311
0.18799 -0.0709 0.41217
0.18754 -0.07338 0.41133
0.18723 -0.07591 0.4106
0.18721 -0.07845 0.40986
0.18724 -0.081 0.40911
0.1871 -0.08362 0.40863
0.18677 -0.08625 0.40835
0.18628 -0.08884 0.40798
0.18563 -0.09132 0.4073
0.18491 -0.09372 0.40642
0.18428 -0.09606 0.40536
0.18396 -0.09842 0.40422
0.18382 -0.10084 0.40318
0.1812 -0.10136 0.40307
0.18357 -0.10325 0.40212
0.19327 -0.03268 0.42095
0.19316 -0.03006 0.4214
0.19349 -0.03531 0.42066
0.19408 -0.0379 0.42051
0.19464 -0.04047 0.42026
0.19466 -0.04309 0.41988
0.19446 -0.04573 0.4201
0.19409 -0.04837 0.42017
0.19362 -0.05101 0.4197
0.19271 -0.05318 0.41837
0.19185 -0.05538 0.41713
0.19134 -0.0578 0.41615
0.1911 -0.06025 0.41518
0.19095 -0.06262 0.41402
0.19076 -0.06504 0.41294
0.19055 -0.06747 0.41191
0.19015 -0.06989 0.41089
0.18969 -0.07238 0.41005
0.18943 -0.07493 0.40938
0.18942 -0.07747 0.40867
0.1895 -0.08005 0.40802
0.18936 -0.08267 0.40758
0.18907 -0.08531 0.40738
0.1887 -0.08794 0.40728
0.18815 -0.09051 0.40693
0.18747 -0.09298 0.40622
0.18686 -0.09537 0.40529
0.18654 -0.09775 0.4042
0.18639 -0.10017 0.40314
0.18615 -0.1026 0.40216
0.18608 -0.10502 0.40109
0.1835 -0.10569 0.40107
0.18615 -0.1075 0.40014
0.18357 -0.10819 0.40016
0.18622 -0.11003 0.39932
0.19592 -0.03188 0.42054
0.19585 -0.02931 0.42114
0.19602 -0.03444 0.41985
0.19648 -0.03702 0.41939
0.19698 -0.0396 0.41905
0.19707 -0.04221 0.4188
0.19655 -0.04479 0.41852
0.19617 -0.04741 0.41857
0.19571 -0.04998 0.41812
0.19489 -0.05223 0.41699
0.19407 -0.05447 0.41582
0.19357 -0.0569 0.41485
0.19336 -0.05937 0.41393
0.19319 -0.06172 0.41275
0.19291 -0.06407 0.41157
0.19262 -0.06647 0.41048
0.19218 -0.06887 0.40942
0.19171 -0.07135 0.40857
0.19156 -0.07394 0.40804
0.19152 -0.07648 0.40732
0.19162 -0.07906 0.40671
0.19155 -0.0817 0.40638
0.19122 -0.08432 0.40614
0.1909 -0.08696 0.40612
0.1905 -0.08957 0.40608
0.18996 -0.09214 0.40572
0.18942 -0.09463 0.40506
0.18911 -0.09705 0.40406
0.18897 -0.09947 0.40302
0.18874 -0.10193 0.40212
0.18868 -0.10437 0.40113
0.18873 -0.10683 0.40014
0.18879 -0.10936 0.39932
0.18874 -0.11189 0.39854
0.18617 -0.11256 0.39853
0.18861 -0.11437 0.39767
0.19862 -0.03133 0.42009
0.19856 -0.02875 0.42067
0.19863 -0.0338 0.41912
0.19902 -0.03634 0.41845
0.19944 -0.0389 0.41794
0.19944 -0.04149 0.41754
0.19887 -0.04403 0.41717
0.19823 -0.04657 0.4169
0.1976 -0.04904 0.4163
0.19696 -0.0514 0.41537
0.19629 -0.05375 0.41437
0.19579 -0.05618 0.41341
0.19565 -0.0587 0.41259
0.19551 -0.06107 0.41145
0.19514 -0.06336 0.4102
0.19473 -0.06566 0.40897
0.19418 -0.06799 0.40781
0.19372 -0.07048 0.40697
0.19345 -0.07304 0.40633
0.19344 -0.07559 0.40565
0.1935 -0.07817 0.40501
0.1936 -0.08083 0.40489
0.19339 -0.08347 0.40483
0.19306 -0.0861 0.4048
0.19278 -0.08872 0.40495
0.19237 -0.09133 0.40489
0.19195 -0.09391 0.40454
0.19169 -0.09641 0.40376
0.19157 -0.09887 0.40283
0.19136 -0.10139 0.40209
0.1913 -0.10386 0.4012
0.19135 -0.1063 0.40019
0.19139 -0.1088 0.39931
0.19133 -0.11132 0.3985
0.19119 -0.1138 0.39763
0.19109 -0.11621 0.39659
0.18851 -0.11678 0.39661
0.19128 -0.11857 0.3954
0.1887 -0.11911 0.39538
0.19173 -0.12093 0.39429
0.18915 -0.12149 0.39425
0.19217 -0.12334 0.39327
0.20119 -0.02867 0.41969
0.20128 -0.03127 0.4192
0.20123 -0.03371 0.41817
0.20157 -0.03622 0.41737
0.20196 -0.03873 0.41676
0.20193 -0.04131 0.41629
0.20132 -0.04382 0.41586
0.20056 -0.04628 0.41543
0.19985 -0.0487 0.4147
0.19912 -0.05101 0.41369
0.1985 -0.0534 0.41277
0.19791 -0.05576 0.41174
0.19764 -0.05821 0.41078
0.19741 -0.06054 0.4096
0.19724 -0.06294 0.40853
0.19668 -0.06514 0.40718
0.19619 -0.06749 0.40604
0.19584 -0.07001 0.40533
0.19552 -0.07254 0.40464
0.19543 -0.07508 0.40389
0.19546 -0.07766 0.40322
0.1956 -0.08032 0.40318
0.1956 -0.08295 0.40341
0.19527 -0.08557 0.40339
0.19499 -0.08818 0.40355
0.19474 -0.0908 0.40377
0.19444 -0.09341 0.4037
0.19426 -0.09597 0.40317
0.19419 -0.0985 0.40246
[...]
CELL_DATA 2985
SCALARS brightness_temperature float
LOOKUP_TABLE default
POINT_DATA 1581
CELL_DATA 2985
SCALARS emission_angle float
LOOKUP_TABLE default
POINT_DATA 1581
CELL_DATA 2985
SCALARS incidence_angle float
LOOKUP_TABLE default
POINT_DATA 1581
CELL_DATA 2985
SCALARS phase_angle float
LOOKUP_TABLE default
POINT_DATA 1581
CELL_DATA 2985
SCALARS local_solar_time float
LOOKUP_TABLE default
POINT_DATA 1581
CELL_DATA 2985
SCALARS local_solar_time_normal_vector float
LOOKUP_TABLE default
CELL_DATA 2985
SCALARS pixel_x float
LOOKUP_TABLE default
POINT_DATA 1581
CELL_DATA 2985
SCALARS pixel_y float
LOOKUP_TABLE default
POINT_DATA 1581
CELL_DATA 2985
SCALARS longitude float
LOOKUP_TABLE default
POINT_DATA 1581
CELL_DATA 2985
SCALARS latitude float
LOOKUP_TABLE default
